Program Version,EnergyPlus, Version 22.1.0-ed759b17ee, YMD=2022.07.19 11:55
1,5,Environment Title[],Latitude[deg],Longitude[deg],Time Zone[],Elevation[m]
2,8,Day of Simulation[],Month[],Day of Month[],DST Indicator[1=yes 0=no],Hour[],StartMinute[],EndMinute[],DayType
3,5,Cumulative Day of Simulation[],Month[],Day of Month[],DST Indicator[1=yes 0=no],DayType  ! When Daily Report Variables Requested
4,2,Cumulative Days of Simulation[],Month[]  ! When Monthly Report Variables Requested
5,1,Cumulative Days of Simulation[] ! When Run Period Report Variables Requested
6,1,Calendar Year of Simulation[] ! When Annual Report Variables Requested
7,1,Environment,Site Outdoor Air Drybulb Temperature [C] !TimeStep
8,1,Environment,Site Outdoor Air Relative Humidity [%] !TimeStep
9,1,Environment,Site Wind Speed [m/s] !TimeStep
10,1,Environment,Site Wind Direction [deg] !TimeStep
11,1,MURO_ESTE,Surface Outside Face Incident Solar Radiation Rate per Area [W/m2] !TimeStep
12,1,MURO_NORTE,Surface Outside Face Incident Solar Radiation Rate per Area [W/m2] !TimeStep
13,1,MURO_OESTE,Surface Outside Face Incident Solar Radiation Rate per Area [W/m2] !TimeStep
14,1,MURO_SUR,Surface Outside Face Incident Solar Radiation Rate per Area [W/m2] !TimeStep
15,1,TECHO,Surface Outside Face Incident Solar Radiation Rate per Area [W/m2] !TimeStep
16,1,ZN001:WALL002:WIN001,Surface Outside Face Incident Solar Radiation Rate per Area [W/m2] !TimeStep
17,1,ZN001:WALL002:WIN001,Surface Window Total Glazing Layers Absorbed Solar Radiation Rate [W] !TimeStep
18,1,ZN001:WALL002:WIN001,Surface Window Transmitted Solar Radiation Rate [W] !TimeStep
19,1,ZN001:WALL002:WIN001,Surface Window Heat Gain Rate [W] !TimeStep
20,1,ZN001:WALL002:WIN001,Surface Window Heat Loss Rate [W] !TimeStep
21,1,ZN001:WALL002:WIN001,Surface Window Shading Device Absorbed Solar Radiation Rate [W] !TimeStep
22,1,ZN001:WALL002:WIN001,Surface Window Transmitted Solar Radiation Energy [J] !TimeStep
23,1,ZN001:WALL002:WIN001,Surface Window Transmitted Beam Solar Radiation Energy [J] !TimeStep
24,1,ZN001:WALL002:WIN001,Surface Window Transmitted Diffuse Solar Radiation Energy [J] !TimeStep
25,1,ZN001:WALL002:WIN001,Surface Window Heat Gain Energy [J] !TimeStep
26,1,ZN001:WALL002:WIN001,Surface Window Heat Loss Energy [J] !TimeStep
27,1,ZN001:WALL002:WIN001,Surface Window System Solar Transmittance [] !TimeStep
28,1,ZN001:WALL002:WIN001,Surface Window System Solar Reflectance [] !TimeStep
29,1,ZN001:WALL002:WIN001,Surface Window System Solar Absorptance [] !TimeStep
30,1,ZN001:WALL001:WIN001,Surface Outside Face Incident Solar Radiation Rate per Area [W/m2] !TimeStep
31,1,ZN001:WALL001:WIN001,Surface Window Total Glazing Layers Absorbed Solar Radiation Rate [W] !TimeStep
32,1,ZN001:WALL001:WIN001,Surface Window Transmitted Solar Radiation Rate [W] !TimeStep
33,1,ZN001:WALL001:WIN001,Surface Window Heat Gain Rate [W] !TimeStep
34,1,ZN001:WALL001:WIN001,Surface Window Heat Loss Rate [W] !TimeStep
35,1,ZN001:WALL001:WIN001,Surface Window Shading Device Absorbed Solar Radiation Rate [W] !TimeStep
36,1,ZN001:WALL001:WIN001,Surface Window Transmitted Solar Radiation Energy [J] !TimeStep
37,1,ZN001:WALL001:WIN001,Surface Window Transmitted Beam Solar Radiation Energy [J] !TimeStep
38,1,ZN001:WALL001:WIN001,Surface Window Transmitted Diffuse Solar Radiation Energy [J] !TimeStep
39,1,ZN001:WALL001:WIN001,Surface Window Heat Gain Energy [J] !TimeStep
40,1,ZN001:WALL001:WIN001,Surface Window Heat Loss Energy [J] !TimeStep
41,1,ZN001:WALL001:WIN001,Surface Window System Solar Transmittance [] !TimeStep
42,1,ZN001:WALL001:WIN001,Surface Window System Solar Reflectance [] !TimeStep
43,1,ZN001:WALL001:WIN001,Surface Window System Solar Absorptance [] !TimeStep
44,1,ZN001:WALL002:WIN001,Surface Shading Device Is On Time Fraction [] !TimeStep
45,1,ZN001:WALL002:WIN001,Surface Window Blind Slat Angle [deg] !TimeStep
46,1,ZN001:WALL001:WIN001,Surface Shading Device Is On Time Fraction [] !TimeStep
47,1,ZN001:WALL001:WIN001,Surface Window Blind Slat Angle [deg] !TimeStep
48,1,THERMAL ZONE: MODELO_SIMPLE,Zone Mean Air Temperature [C] !TimeStep
49,1,THERMAL ZONE: MODELO_SIMPLE,Zone Air System Sensible Heating Energy [J] !TimeStep
134,1,THERMAL ZONE: MODELO_SIMPLE,Zone Air System Sensible Cooling Energy [J] !TimeStep
183,1,THERMAL ZONE: MODELO_SIMPLE,Zone Air System Sensible Heating Rate [W] !TimeStep
184,1,THERMAL ZONE: MODELO_SIMPLE,Zone Air System Sensible Cooling Rate [W] !TimeStep
185,1,THERMAL ZONE: MODELO_SIMPLE,Zone Air Temperature [C] !TimeStep
186,1,THERMAL ZONE: MODELO_SIMPLE,Zone Air Humidity Ratio [] !TimeStep
187,1,THERMAL ZONE: MODELO_SIMPLE,Zone Air Relative Humidity [%] !TimeStep
288,1,PEOPLE,Zone Thermal Comfort Fanger Model PMV [] !TimeStep
289,1,PEOPLE,Zone Thermal Comfort Fanger Model PPD [%] !TimeStep
290,1,THERMAL ZONE: MODELO_SIMPLE,Zone Thermal Comfort ASHRAE 55 Simple Model Summer or Winter Clothes Not Comfortable Time [hr] !TimeStep
213,1,Heating:DistrictHeating [J] !TimeStep
262,1,Cooling:DistrictCooling [J] !TimeStep
135,1,Cooling:EnergyTransfer [J] !TimeStep
End of Data Dictionary
1,DDMM, -32.90, -68.87,  -3.00, 676.00
2,1,12,25, 0, 1, 0.00, 3.00,Sunday
7,16.224999999999998
8,57.1
9,0.6499999999999999
10,224.3
11,0.0
12,0.0
13,0.0
14,0.0
15,0.0
16,0.0
17,0.0
18,0.0
19,0.0
20,11.201730852894856
21,0.0
22,0.0
23,0.0
24,0.0
25,0.0
26,2016.311553521074
27,0.0
28,0.0
29,0.0
30,0.0
31,0.0
32,0.0
33,0.0
34,33.28241845564605
35,0.0
36,0.0
37,0.0
38,0.0
39,0.0
40,5990.83532201629
41,0.0
42,0.0
43,0.0
44,0.0
45,0.0
46,0.0
47,0.0
48,17.85259950052126
288,-6.87035168751653
289,100.0
290,0.05
49,0.0
134,0.0
183,0.0
184,0.0
185,17.85259950052126
186,0.006916408698513125
187,50.53532716880147
135,0.0
213,0.0
262,0.0
2,1,12,25, 0, 1, 3.00, 6.00,Sunday
7,16.150000000000002
8,57.2
9,0.7000000000000001
10,223.6
11,0.0
12,0.0
13,0.0
14,0.0
15,0.0
16,0.0
17,0.0
18,0.0
19,0.0
20,11.441433322496724
21,0.0
22,0.0
23,0.0
24,0.0
25,0.0
26,2059.4579980494104
27,0.0
28,0.0
29,0.0
30,0.0
31,0.0
32,0.0
33,0.0
34,33.95873153103112
35,0.0
36,0.0
37,0.0
38,0.0
39,0.0
40,6112.571675585602
41,0.0
42,0.0
43,0.0
44,0.0
45,0.0
46,0.0
47,0.0
48,17.93220950472174
288,-6.836962212549676
289,100.0
290,0.05
49,0.0
134,0.0
183,0.0
184,0.0
185,17.93220950472174
186,0.006919810004163032
187,50.30941858834551
135,0.0
213,0.0
262,0.0
2,1,12,25, 0, 1, 6.00, 9.00,Sunday
7,16.075
8,57.3
9,0.75
10,222.9
11,0.0
12,0.0
13,0.0
14,0.0
15,0.0
16,0.0
17,0.0
18,0.0
19,0.0
20,11.656823593929738
21,0.0
22,0.0
23,0.0
24,0.0
25,0.0
26,2098.228246907353
27,0.0
28,0.0
29,0.0
30,0.0
31,0.0
32,0.0
33,0.0
34,34.56727031117321
35,0.0
36,0.0
37,0.0
38,0.0
39,0.0
40,6222.108656011178
41,0.0
42,0.0
43,0.0
44,0.0
45,0.0
46,0.0
47,0.0
48,17.348575616920634
288,-7.0719556564746835
289,100.0
290,0.05
49,0.0
134,85891.40593655762
183,0.0
184,477.17447742532016
185,17.348575616920634
186,0.006935192829606913
187,52.314758722905665
135,85891.40593655762
213,1722.6129878865845
262,90000.0
2,1,12,25, 0, 1, 9.00,12.00,Sunday
7,16.0
8,57.400000000000006
9,0.8
10,222.2
11,0.0
12,0.0
13,0.0
14,0.0
15,0.0
16,0.0
17,0.0
18,0.0
19,0.0
20,11.395621790263169
21,0.0
22,0.0
23,0.0
24,0.0
25,0.0
26,2051.2119222473702
27,0.0
28,0.0
29,0.0
30,0.0
31,0.0
32,0.0
33,0.0
34,33.8604797636517
35,0.0
36,0.0
37,0.0
38,0.0
39,0.0
40,6094.886357457307
41,0.0
42,0.0
43,0.0
44,0.0
45,0.0
46,0.0
47,0.0
48,17.25296805020366
288,-7.113340649007751
289,100.0
290,0.05
49,0.0
134,0.0
183,0.0
184,0.0
185,17.25296805020366
186,0.00694645846506374
187,52.71710325894481
135,0.0
213,0.0
262,0.0
2,1,12,25, 0, 1,12.00,15.00,Sunday
7,15.925
8,57.5
9,0.85
10,221.5
11,0.0
12,0.0
13,0.0
14,0.0
15,0.0
16,0.0
17,0.0
18,0.0
19,0.0
20,11.481646720349147
21,0.0
22,0.0
23,0.0
24,0.0
25,0.0
26,2066.6964096628462
27,0.0
28,0.0
29,0.0
30,0.0
31,0.0
32,0.0
33,0.0
34,34.107400435561765
35,0.0
36,0.0
37,0.0
38,0.0
39,0.0
40,6139.3320784011175
41,0.0
42,0.0
43,0.0
44,0.0
45,0.0
46,0.0
47,0.0
48,17.514496077508223
288,-7.007003278085044
289,100.0
290,0.05
49,0.0
134,0.0
183,0.0
184,0.0
185,17.514496077508223
186,0.006951457070612907
187,51.89178943377666
135,0.0
213,0.0
262,0.0
2,1,12,25, 0, 1,15.00,18.00,Sunday
7,15.850000000000001
8,57.599999999999994
9,0.8999999999999999
10,220.8
11,0.0
12,0.0
13,0.0
14,0.0
15,0.0
16,0.0
17,0.0
18,0.0
19,0.0
20,11.766231348739145
21,0.0
22,0.0
23,0.0
24,0.0
25,0.0
26,2117.921642773046
27,0.0
28,0.0
29,0.0
30,0.0
31,0.0
32,0.0
33,0.0
34,34.918937286819045
35,0.0
36,0.0
37,0.0
38,0.0
39,0.0
40,6285.408711627428
41,0.0
42,0.0
43,0.0
44,0.0
45,0.0
46,0.0
47,0.0
48,17.65071107877244
288,-6.951482847869968
289,100.0
290,0.05
49,0.0
134,0.0
183,0.0
184,0.0
185,17.65071107877244
186,0.006949073381719408
187,51.43305336869042
135,0.0
213,0.0
262,0.0
2,1,12,25, 0, 1,18.00,21.00,Sunday
7,15.775
8,57.7
9,0.95
10,220.1
11,0.0
12,0.0
13,0.0
14,0.0
15,0.0
16,0.0
17,0.0
18,0.0
19,0.0
20,12.029856220170124
21,0.0
22,0.0
23,0.0
24,0.0
25,0.0
26,2165.3741196306223
27,0.0
28,0.0
29,0.0
30,0.0
31,0.0
32,0.0
33,0.0
34,35.66788257657191
35,0.0
36,0.0
37,0.0
38,0.0
39,0.0
40,6420.218863782944
41,0.0
42,0.0
43,0.0
44,0.0
45,0.0
46,0.0
47,0.0
48,17.802854721628247
288,-6.891586755605451
289,100.0
290,0.05
49,0.0
134,0.0
183,0.0
184,0.0
185,17.802854721628247
186,0.006945224430435379
187,50.91548599439558
135,0.0
213,0.0
262,0.0
2,1,12,25, 0, 1,21.00,24.00,Sunday
7,15.7
8,57.8
9,1.0
10,219.4
11,0.0
12,0.0
13,0.0
14,0.0
15,0.0
16,0.0
17,0.0
18,0.0
19,0.0
20,12.204521334443282
21,0.0
22,0.0
23,0.0
24,0.0
25,0.0
26,2196.813840199791
27,0.0
28,0.0
29,0.0
30,0.0
31,0.0
32,0.0
33,0.0
34,36.16659055298829
35,0.0
36,0.0
37,0.0
38,0.0
39,0.0
40,6509.986299537892
41,0.0
42,0.0
43,0.0
44,0.0
45,0.0
46,0.0
47,0.0
48,17.94742132203732
288,-6.834417309873765
289,100.0
290,0.05
49,0.0
134,0.0
183,0.0
184,0.0
185,17.94742132203732
186,0.006940830597274702
187,50.42459220654414
135,0.0
213,0.0
262,0.0
2,1,12,25, 0, 1,24.00,27.00,Sunday
7,15.625000000000002
8,57.900000000000006
9,1.05
10,218.7
11,0.0
12,0.0
13,0.0
14,0.0
15,0.0
16,0.0
17,0.0
18,0.0
19,0.0
20,12.429514327536099
21,0.0
22,0.0
23,0.0
24,0.0
25,0.0
26,2237.312578956498
27,0.0
28,0.0
29,0.0
30,0.0
31,0.0
32,0.0
33,0.0
34,36.81500557783259
35,0.0
36,0.0
37,0.0
38,0.0
39,0.0
40,6626.701004009867
41,0.0
42,0.0
43,0.0
44,0.0
45,0.0
46,0.0
47,0.0
48,17.914511013201352
288,-6.845948101489842
289,100.0
290,0.05
49,0.0
134,26146.981950359703
183,0.0
184,145.26101083533166
185,17.914511013201352
186,0.00692789512975274
187,50.43814074660773
135,26146.981950359703
213,0.0
262,36717.65212522976
2,1,12,25, 0, 1,27.00,30.00,Sunday
7,15.55
8,58.0
9,1.1
10,218.0
11,0.0
12,0.0
13,0.0
14,0.0
15,0.0
16,0.0
17,0.0
18,0.0
19,0.0
20,12.486806060303623
21,0.0
22,0.0
23,0.0
24,0.0
25,0.0
26,2247.625090854652
27,0.0
28,0.0
29,0.0
30,0.0
31,0.0
32,0.0
33,0.0
34,36.987509491996754
35,0.0
36,0.0
37,0.0
38,0.0
39,0.0
40,6657.751708559415
41,0.0
42,0.0
43,0.0
44,0.0
45,0.0
46,0.0
47,0.0
48,17.93345282620391
288,-6.841859427127894
289,100.0
290,0.05
49,0.0
134,0.0
183,0.0
184,0.0
185,17.93345282620391
186,0.006917006990860125
187,50.301794051324144
135,0.0
213,0.0
262,0.0
2,1,12,25, 0, 1,30.00,33.00,Sunday
7,15.475000000000001
8,58.1
9,1.1500000000000001
10,217.3
11,0.0
12,0.0
13,0.0
14,0.0
15,0.0
16,0.0
17,0.0
18,0.0
19,0.0
20,12.690713856839693
21,0.0
22,0.0
23,0.0
24,0.0
25,0.0
26,2284.3284942311448
27,0.0
28,0.0
29,0.0
30,0.0
31,0.0
32,0.0
33,0.0
34,37.584901569750805
35,0.0
36,0.0
37,0.0
38,0.0
39,0.0
40,6765.282282555145
41,0.0
42,0.0
43,0.0
44,0.0
45,0.0
46,0.0
47,0.0
48,17.994735121726663
288,-6.815658440294332
289,100.0
290,0.05
49,0.0
134,0.0
183,0.0
184,0.0
185,17.994735121726663
186,0.0069082625691930435
187,50.047607326965405
135,0.0
213,0.0
262,0.0
2,1,12,25, 0, 1,33.00,36.00,Sunday
7,15.400000000000002
8,58.2
9,1.2
10,216.6
11,0.0
12,0.0
13,0.0
14,0.0
15,0.0
16,0.0
17,0.0
18,0.0
19,0.0
20,12.86662803864593
21,0.0
22,0.0
23,0.0
24,0.0
25,0.0
26,2315.9930469562673
27,0.0
28,0.0
29,0.0
30,0.0
31,0.0
32,0.0
33,0.0
34,38.098680821794986
35,0.0
36,0.0
37,0.0
38,0.0
39,0.0
40,6857.762547923097
41,0.0
42,0.0
43,0.0
44,0.0
45,0.0
46,0.0
47,0.0
48,17.776947061781037
288,-6.906374364345385
289,100.0
290,0.05
49,0.0
134,39296.28557109704
183,0.0
184,218.31269761720574
185,17.776947061781037
186,0.006864315874345448
187,50.4220029002373
135,39296.28557109704
213,0.0
262,55336.69483160768
2,1,12,25, 0, 1,36.00,39.00,Sunday
7,15.325000000000001
8,58.3
9,1.25
10,215.9
11,0.0
12,0.0
13,0.0
14,0.0
15,0.0
16,0.0
17,0.0
18,0.0
19,0.0
20,12.752784675899026
21,0.0
22,0.0
23,0.0
24,0.0
25,0.0
26,2295.5012416618247
27,0.0
28,0.0
29,0.0
30,0.0
31,0.0
32,0.0
33,0.0
34,37.79118905703159
35,0.0
36,0.0
37,0.0
38,0.0
39,0.0
40,6802.414030265686
41,0.0
42,0.0
43,0.0
44,0.0
45,0.0
46,0.0
47,0.0
48,17.73576125465632
288,-6.926567603559854
289,100.0
290,0.05
49,0.0
134,0.0
183,0.0
184,0.0
185,17.73576125465632
186,0.006835404368485184
187,50.344055626452175
135,0.0
213,0.0
262,0.0
2,1,12,25, 0, 1,39.00,42.00,Sunday
7,15.25
8,58.4
9,1.2999999999999998
10,215.2
11,0.0
12,0.0
13,0.0
14,0.0
15,0.0
16,0.0
17,0.0
18,0.0
19,0.0
20,12.967158342360573
21,0.0
22,0.0
23,0.0
24,0.0
25,0.0
26,2334.088501624903
27,0.0
28,0.0
29,0.0
30,0.0
31,0.0
32,0.0
33,0.0
34,38.428747726423516
35,0.0
36,0.0
37,0.0
38,0.0
39,0.0
40,6917.174590756233
41,0.0
42,0.0
43,0.0
44,0.0
45,0.0
46,0.0
47,0.0
48,17.82507601044445
288,-6.890393834684809
289,100.0
290,0.05
49,0.0
134,0.0
183,0.0
184,0.0
185,17.82507601044445
186,0.006822009902398748
187,49.966526495785224
135,0.0
213,0.0
262,0.0
2,1,12,25, 0, 1,42.00,45.00,Sunday
7,15.175
8,58.5
9,1.35
10,214.5
11,0.0
12,0.0
13,0.0
14,0.0
15,0.0
16,0.0
17,0.0
18,0.0
19,0.0
20,13.158115737233292
21,0.0
22,0.0
23,0.0
24,0.0
25,0.0
26,2368.4608327019923
27,0.0
28,0.0
29,0.0
30,0.0
31,0.0
32,0.0
33,0.0
34,38.98827664582853
35,0.0
36,0.0
37,0.0
38,0.0
39,0.0
40,7017.889796249135
41,0.0
42,0.0
43,0.0
44,0.0
45,0.0
46,0.0
47,0.0
48,17.93215772991361
288,-6.849149899376562
289,100.0
290,0.05
49,0.0
134,0.0
183,0.0
184,0.0
185,17.93215772991361
186,0.006814956778389417
187,49.58203145105414
135,0.0
213,0.0
262,0.0
2,1,12,25, 0, 1,45.00,48.00,Sunday
7,15.100000000000001
8,58.6
9,1.4000000000000001
10,213.8
11,0.0
12,0.0
13,0.0
14,0.0
15,0.0
16,0.0
17,0.0
18,0.0
19,0.0
20,13.359930430155268
21,0.0
22,0.0
23,0.0
24,0.0
25,0.0
26,2404.7874774279485
27,0.0
28,0.0
29,0.0
30,0.0
31,0.0
32,0.0
33,0.0
34,39.5786450434686
35,0.0
36,0.0
37,0.0
38,0.0
39,0.0
40,7124.156107824348
41,0.0
42,0.0
43,0.0
44,0.0
45,0.0
46,0.0
47,0.0
48,17.963183226328017
288,-6.836362881894828
289,100.0
290,0.05
49,0.0
134,6158.792480286322
183,0.0
184,34.21551377936845
185,17.963183226328017
186,0.006801457085374049
187,49.3903944242148
135,6158.792480286322
213,0.0
262,8462.468703631806
2,1,12,25, 0, 1,48.00,51.00,Sunday
7,15.025
8,58.7
9,1.4500000000000002
10,213.1
11,0.0
12,0.0
13,0.0
14,0.0
15,0.0
16,0.0
17,0.0
18,0.0
19,0.0
20,13.515481197959064
21,0.0
22,0.0
23,0.0
24,0.0
25,0.0
26,2432.7866156326313
27,0.0
28,0.0
29,0.0
30,0.0
31,0.0
32,0.0
33,0.0
34,40.0385547275079
35,0.0
36,0.0
37,0.0
38,0.0
39,0.0
40,7206.939850951422
41,0.0
42,0.0
43,0.0
44,0.0
45,0.0
46,0.0
47,0.0
48,17.980402946148548
288,-6.829671117354618
289,100.0
290,0.05
49,0.0
134,0.0
183,0.0
184,0.0
185,17.980402946148548
186,0.006789399844950539
187,49.25243179374765
135,0.0
213,0.0
262,0.0
2,1,12,25, 0, 1,51.00,54.00,Sunday
7,14.95
8,58.8
9,1.5000000000000002
10,212.4
11,0.0
12,0.0
13,0.0
14,0.0
15,0.0
16,0.0
17,0.0
18,0.0
19,0.0
20,13.661717446514759
21,0.0
22,0.0
23,0.0
24,0.0
25,0.0
26,2459.1091403726564
27,0.0
28,0.0
29,0.0
30,0.0
31,0.0
32,0.0
33,0.0
34,40.47490845178088
35,0.0
36,0.0
37,0.0
38,0.0
39,0.0
40,7285.483521320558
41,0.0
42,0.0
43,0.0
44,0.0
45,0.0
46,0.0
47,0.0
48,17.99437381257
288,-6.8242904254829115
289,100.0
290,0.05
49,0.0
134,0.0
183,0.0
184,0.0
185,17.99437381257
186,0.006778831534366093
187,49.135420624936074
135,0.0
213,0.0
262,0.0
2,1,12,25, 0, 1,54.00,57.00,Sunday
7,14.875000000000002
8,58.9
9,1.55
10,211.7
11,0.0
12,0.0
13,0.0
14,0.0
15,0.0
16,0.0
17,0.0
18,0.0
19,0.0
20,13.806597954578555
21,0.0
22,0.0
23,0.0
24,0.0
25,0.0
26,2485.1876318241398
27,0.0
28,0.0
29,0.0
30,0.0
31,0.0
32,0.0
33,0.0
34,40.90916173727779
35,0.0
36,0.0
37,0.0
38,0.0
39,0.0
40,7363.649112710003
41,0.0
42,0.0
43,0.0
44,0.0
45,0.0
46,0.0
47,0.0
48,17.966006996437027
288,-6.837508547211592
289,100.0
290,0.05
49,0.0
134,5664.693218038158
183,0.0
184,31.470517877989767
185,17.966006996437027
186,0.00676214384032954
187,49.105365385764486
135,5664.693218038158
213,0.0
262,7774.483798623066
2,1,12,25, 0, 1,57.00,60.00,Sunday
7,14.8
8,59.0
9,1.6
10,211.0
11,0.0
12,0.0
13,0.0
14,0.0
15,0.0
16,0.0
17,0.0
18,0.0
19,0.0
20,13.92392605224559
21,0.0
22,0.0
23,0.0
24,0.0
25,0.0
26,2506.3066894042063
27,0.0
28,0.0
29,0.0
30,0.0
31,0.0
32,0.0
33,0.0
34,41.26586695727721
35,0.0
36,0.0
37,0.0
38,0.0
39,0.0
40,7427.856052309898
41,0.0
42,0.0
43,0.0
44,0.0
45,0.0
46,0.0
47,0.0
48,17.954265141395354
288,-6.843599687071996
289,100.0
290,0.05
49,0.0
134,0.0
183,0.0
184,0.0
185,17.954265141395354
186,0.006747463484405505
187,49.038157142998855
135,0.0
213,0.0
262,0.0
2,1,12,25, 0, 2, 0.00, 3.00,Sunday
7,14.75
8,59.199999999999996
9,1.645
10,210.9
11,0.0
12,0.0
13,0.0
14,0.0
15,0.0
16,0.0
17,0.0
18,0.0
19,0.0
20,13.983866489797538
21,0.0
22,0.0
23,0.0
24,0.0
25,0.0
26,2517.095968163557
27,0.0
28,0.0
29,0.0
30,0.0
31,0.0
32,0.0
33,0.0
34,41.45388862398405
35,0.0
36,0.0
37,0.0
38,0.0
39,0.0
40,7461.699952317129
41,0.0
42,0.0
43,0.0
44,0.0
45,0.0
46,0.0
47,0.0
48,17.95753629451379
288,-6.843001825106368
289,100.0
290,0.05
49,0.0
134,0.0
183,0.0
184,0.0
185,17.95753629451379
186,0.006735872150110167
187,48.94448094942216
135,0.0
213,0.0
262,0.0
2,1,12,25, 0, 2, 3.00, 6.00,Sunday
7,14.700000000000001
8,59.400000000000006
9,1.6900000000000002
10,210.8
11,0.0
12,0.0
13,0.0
14,0.0
15,0.0
16,0.0
17,0.0
18,0.0
19,0.0
20,14.05698371601414
21,0.0
22,0.0
23,0.0
24,0.0
25,0.0
26,2530.257068882545
27,0.0
28,0.0
29,0.0
30,0.0
31,0.0
32,0.0
33,0.0
34,41.67369463772648
35,0.0
36,0.0
37,0.0
38,0.0
39,0.0
40,7501.265034790766
41,0.0
42,0.0
43,0.0
44,0.0
45,0.0
46,0.0
47,0.0
48,17.962887536414666
288,-6.841390032288683
289,100.0
290,0.05
49,0.0
134,0.0
183,0.0
184,0.0
185,17.962887536414666
186,0.006726456054739885
187,48.860077156354734
135,0.0
213,0.0
262,0.0
2,1,12,25, 0, 2, 6.00, 9.00,Sunday
7,14.65
8,59.599999999999994
9,1.735
10,210.7
11,0.0
12,0.0
13,0.0
14,0.0
15,0.0
16,0.0
17,0.0
18,0.0
19,0.0
20,14.131237390597136
21,0.0
22,0.0
23,0.0
24,0.0
25,0.0
26,2543.6227303074843
27,0.0
28,0.0
29,0.0
30,0.0
31,0.0
32,0.0
33,0.0
34,41.90007344644813
35,0.0
36,0.0
37,0.0
38,0.0
39,0.0
40,7542.013220360664
41,0.0
42,0.0
43,0.0
44,0.0
45,0.0
46,0.0
47,0.0
48,17.963319609032194
288,-6.841817301656094
289,100.0
290,0.05
49,0.0
134,0.0
183,0.0
184,0.0
185,17.963319609032194
186,0.006718359793857536
187,48.80030928540757
135,0.0
213,0.0
262,0.0
2,1,12,25, 0, 2, 9.00,12.00,Sunday
7,14.600000000000001
8,59.800000000000004
9,1.7800000000000002
10,210.6
11,0.0
12,0.0
13,0.0
14,0.0
15,0.0
16,0.0
17,0.0
18,0.0
19,0.0
20,14.203707805215613
21,0.0
22,0.0
23,0.0
24,0.0
25,0.0
26,2556.6674049388103
27,0.0
28,0.0
29,0.0
30,0.0
31,0.0
32,0.0
33,0.0
34,42.12270216994673
35,0.0
36,0.0
37,0.0
38,0.0
39,0.0
40,7582.086390590411
41,0.0
42,0.0
43,0.0
44,0.0
45,0.0
46,0.0
47,0.0
48,17.958160415632417
288,-6.844626082485534
289,100.0
290,0.05
49,0.0
134,0.0
183,0.0
184,0.0
185,17.958160415632417
186,0.006711151740239276
187,48.764079153590814
135,0.0
213,0.0
262,0.0
2,1,12,25, 0, 2,12.00,15.00,Sunday
7,14.55
8,60.0
9,1.8250000000000002
10,210.5
11,0.0
12,0.0
13,0.0
14,0.0
15,0.0
16,0.0
17,0.0
18,0.0
19,0.0
20,14.2725469057468
21,0.0
22,0.0
23,0.0
24,0.0
25,0.0
26,2569.0584430344243
27,0.0
28,0.0
29,0.0
30,0.0
31,0.0
32,0.0
33,0.0
34,42.33634521527074
35,0.0
36,0.0
37,0.0
38,0.0
39,0.0
40,7620.542138748733
41,0.0
42,0.0
43,0.0
44,0.0
45,0.0
46,0.0
47,0.0
48,17.949291938601103
288,-6.849011536976145
289,100.0
290,0.05
49,0.0
134,0.0
183,0.0
184,0.0
185,17.949291938601103
186,0.006704668296803735
187,48.74441337291806
135,0.0
213,0.0
262,0.0
2,1,12,25, 0, 2,15.00,18.00,Sunday
7,14.5
8,60.199999999999996
9,1.8699999999999999
10,210.4
11,0.0
12,0.0
13,0.0
14,0.0
15,0.0
16,0.0
17,0.0
18,0.0
19,0.0
20,14.337168905028975
21,0.0
22,0.0
23,0.0
24,0.0
25,0.0
26,2580.6904029052153
27,0.0
28,0.0
29,0.0
30,0.0
31,0.0
32,0.0
33,0.0
34,42.53982155209621
35,0.0
36,0.0
37,0.0
38,0.0
39,0.0
40,7657.167879377317
41,0.0
42,0.0
43,0.0
44,0.0
45,0.0
46,0.0
47,0.0
48,17.938595689518348
288,-6.854175296988672
289,100.0
290,0.05
49,0.0
134,0.0
183,0.0
184,0.0
185,17.938595689518348
186,0.006698843046157537
187,48.735053362388115
135,0.0
213,0.0
262,0.0
2,1,12,25, 0, 2,18.00,21.00,Sunday
7,14.450000000000001
8,60.4
9,1.915
10,210.3
11,0.0
12,0.0
13,0.0
14,0.0
15,0.0
16,0.0
17,0.0
18,0.0
19,0.0
20,14.401627773829905
21,0.0
22,0.0
23,0.0
24,0.0
25,0.0
26,2592.292999289383
27,0.0
28,0.0
29,0.0
30,0.0
31,0.0
32,0.0
33,0.0
34,42.74029740151636
35,0.0
36,0.0
37,0.0
38,0.0
39,0.0
40,7693.2535322729445
41,0.0
42,0.0
43,0.0
44,0.0
45,0.0
46,0.0
47,0.0
48,17.92716946465423
288,-6.859629900927525
289,100.0
290,0.05
49,0.0
134,0.0
183,0.0
184,0.0
185,17.92716946465423
186,0.006693625442556106
187,48.732275566678936
135,0.0
213,0.0
262,0.0
2,1,12,25, 0, 2,21.00,24.00,Sunday
7,14.400000000000002
8,60.6
9,1.96
10,210.2
11,0.0
12,0.0
13,0.0
14,0.0
15,0.0
16,0.0
17,0.0
18,0.0
19,0.0
20,14.465571810016192
21,0.0
22,0.0
23,0.0
24,0.0
25,0.0
26,2603.8029258029146
27,0.0
28,0.0
29,0.0
30,0.0
31,0.0
32,0.0
33,0.0
34,42.94010945904925
35,0.0
36,0.0
37,0.0
38,0.0
39,0.0
40,7729.219702628866
41,0.0
42,0.0
43,0.0
44,0.0
45,0.0
46,0.0
47,0.0
48,17.915449337205377
288,-6.865204381122968
289,100.0
290,0.05
49,0.0
134,0.0
183,0.0
184,0.0
185,17.915449337205377
186,0.006688960429499373
187,48.73435573994989
135,0.0
213,0.0
262,0.0
2,1,12,25, 0, 2,24.00,27.00,Sunday
7,14.350000000000001
8,60.800000000000004
9,2.005
10,210.1
11,0.0
12,0.0
13,0.0
14,0.0
15,0.0
16,0.0
17,0.0
18,0.0
19,0.0
20,14.529311091862827
21,0.0
22,0.0
23,0.0
24,0.0
25,0.0
26,2615.275996535309
27,0.0
28,0.0
29,0.0
30,0.0
31,0.0
32,0.0
33,0.0
34,43.13952296723069
35,0.0
36,0.0
37,0.0
38,0.0
39,0.0
40,7765.1141341015245
41,0.0
42,0.0
43,0.0
44,0.0
45,0.0
46,0.0
47,0.0
48,17.903559353371698
288,-6.870828477683812
289,100.0
290,0.05
49,0.0
134,0.0
183,0.0
184,0.0
185,17.903559353371698
186,0.006684790398786153
187,48.740510043586276
135,0.0
213,0.0
262,0.0
2,1,12,25, 0, 2,27.00,30.00,Sunday
7,14.3
8,61.0
9,2.05
10,210.0
11,0.0
12,0.0
13,0.0
14,0.0
15,0.0
16,0.0
17,0.0
18,0.0
19,0.0
20,14.593075861952848
21,0.0
22,0.0
23,0.0
24,0.0
25,0.0
26,2626.7536551515127
27,0.0
28,0.0
29,0.0
30,0.0
31,0.0
32,0.0
33,0.0
34,43.339283715609014
35,0.0
36,0.0
37,0.0
38,0.0
39,0.0
40,7801.071068809622
41,0.0
42,0.0
43,0.0
44,0.0
45,0.0
46,0.0
47,0.0
48,17.891524197264562
288,-6.873575240129164
289,100.0
290,0.05
49,0.0
134,0.0
183,0.0
184,0.0
185,17.891524197264562
186,0.006681059987195728
187,48.7502681736359
135,0.0
213,0.0
262,0.0
2,1,12,25, 0, 2,30.00,33.00,Sunday
7,14.25
8,61.2
9,2.0949999999999998
10,209.9
11,0.0
12,0.0
13,0.0
14,0.0
15,0.0
16,0.0
17,0.0
18,0.0
19,0.0
20,14.656741770949862
21,0.0
22,0.0
23,0.0
24,0.0
25,0.0
26,2638.213518770975
27,0.0
28,0.0
29,0.0
30,0.0
31,0.0
32,0.0
33,0.0
34,43.538938165381246
35,0.0
36,0.0
37,0.0
38,0.0
39,0.0
40,7837.008869768624
41,0.0
42,0.0
43,0.0
44,0.0
45,0.0
46,0.0
47,0.0
48,17.879368001184627
288,-6.879110082222821
289,100.0
290,0.05
49,0.0
134,0.0
183,0.0
184,0.0
185,17.879368001184627
186,0.006677718558774647
187,48.763195799467326
135,0.0
213,0.0
262,0.0
2,1,12,25, 0, 2,33.00,36.00,Sunday
7,14.2
8,61.4
9,2.14
10,209.8
11,0.0
12,0.0
13,0.0
14,0.0
15,0.0
16,0.0
17,0.0
18,0.0
19,0.0
20,14.72048355042528
21,0.0
22,0.0
23,0.0
24,0.0
25,0.0
26,2649.6870390765503
27,0.0
28,0.0
29,0.0
30,0.0
31,0.0
32,0.0
33,0.0
34,43.739039408596
35,0.0
36,0.0
37,0.0
38,0.0
39,0.0
40,7873.02709354728
41,0.0
42,0.0
43,0.0
44,0.0
45,0.0
46,0.0
47,0.0
48,17.86711666089994
288,-6.884685029976302
289,100.0
290,0.05
49,0.0
134,0.0
183,0.0
184,0.0
185,17.86711666089994
186,0.006674720585570524
187,48.778897369805705
135,0.0
213,0.0
262,0.0
2,1,12,25, 0, 2,36.00,39.00,Sunday
7,14.15
8,61.6
9,2.185
10,209.7
11,0.0
12,0.0
13,0.0
14,0.0
15,0.0
16,0.0
17,0.0
18,0.0
19,0.0
20,14.78419518045751
21,0.0
22,0.0
23,0.0
24,0.0
25,0.0
26,2661.1551324823517
27,0.0
28,0.0
29,0.0
30,0.0
31,0.0
32,0.0
33,0.0
34,43.939191722060514
35,0.0
36,0.0
37,0.0
38,0.0
39,0.0
40,7909.0545099708925
41,0.0
42,0.0
43,0.0
44,0.0
45,0.0
46,0.0
47,0.0
48,17.854800196385224
288,-6.890272590018485
289,100.0
290,0.05
49,0.0
134,0.0
183,0.0
184,0.0
185,17.854800196385224
186,0.006672025215712338
187,48.79698668988991
135,0.0
213,0.0
262,0.0
2,1,12,25, 0, 2,39.00,42.00,Sunday
7,14.100000000000001
8,61.8
9,2.23
10,209.6
11,0.0
12,0.0
13,0.0
14,0.0
15,0.0
16,0.0
17,0.0
18,0.0
19,0.0
20,14.848038967280948
21,0.0
22,0.0
23,0.0
24,0.0
25,0.0
26,2672.6470141105706
27,0.0
28,0.0
29,0.0
30,0.0
31,0.0
32,0.0
33,0.0
34,44.139904753375625
35,0.0
36,0.0
37,0.0
38,0.0
39,0.0
40,7945.1828556076125
41,0.0
42,0.0
43,0.0
44,0.0
45,0.0
46,0.0
47,0.0
48,17.842436723936643
288,-6.895882576847817
289,100.0
290,0.05
49,0.0
134,0.0
183,0.0
184,0.0
185,17.842436723936643
186,0.0066695957035193005
187,48.8171473265109
135,0.0
213,0.0
262,0.0
2,1,12,25, 0, 2,42.00,45.00,Sunday
7,14.05
8,62.0
9,2.275
10,209.5
11,0.0
12,0.0
13,0.0
14,0.0
15,0.0
16,0.0
17,0.0
18,0.0
19,0.0
20,14.911913636776841
21,0.0
22,0.0
23,0.0
24,0.0
25,0.0
26,2684.1444546198313
27,0.0
28,0.0
29,0.0
30,0.0
31,0.0
32,0.0
33,0.0
34,44.34080363192243
35,0.0
36,0.0
37,0.0
38,0.0
39,0.0
40,7981.344653746037
41,0.0
42,0.0
43,0.0
44,0.0
45,0.0
46,0.0
47,0.0
48,17.830041515204513
288,-6.901494734998472
289,100.0
290,0.05
49,0.0
134,0.0
183,0.0
184,0.0
185,17.830041515204513
186,0.006667398893429824
187,48.83909676847962
135,0.0
213,0.0
262,0.0
2,1,12,25, 0, 2,45.00,48.00,Sunday
7,14.0
8,62.2
9,2.32
10,209.4
11,0.0
12,0.0
13,0.0
14,0.0
15,0.0
16,0.0
17,0.0
18,0.0
19,0.0
20,14.97595896860433
21,0.0
22,0.0
23,0.0
24,0.0
25,0.0
26,2695.6726143487795
27,0.0
28,0.0
29,0.0
30,0.0
31,0.0
32,0.0
33,0.0
34,44.54232986156674
35,0.0
36,0.0
37,0.0
38,0.0
39,0.0
40,8017.619375082014
41,0.0
42,0.0
43,0.0
44,0.0
45,0.0
46,0.0
47,0.0
48,17.817619942319944
288,-6.907122669633941
289,100.0
290,0.05
49,0.0
134,0.0
183,0.0
184,0.0
185,17.817619942319944
186,0.006665404863253344
187,48.862607424622716
135,0.0
213,0.0
262,0.0
2,1,12,25, 0, 2,48.00,51.00,Sunday
7,13.950000000000001
8,62.4
9,2.365
10,209.3
11,0.0
12,0.0
13,0.0
14,0.0
15,0.0
16,0.0
17,0.0
18,0.0
19,0.0
20,15.040072736388675
21,0.0
22,0.0
23,0.0
24,0.0
25,0.0
26,2707.2130925499614
27,0.0
28,0.0
29,0.0
30,0.0
31,0.0
32,0.0
33,0.0
34,44.74411294147206
35,0.0
36,0.0
37,0.0
38,0.0
39,0.0
40,8053.940329464971
41,0.0
42,0.0
43,0.0
44,0.0
45,0.0
46,0.0
47,0.0
48,17.805178798079968
288,-6.912750559983932
289,100.0
290,0.05
49,0.0
134,0.0
183,0.0
184,0.0
185,17.805178798079968
186,0.006663586585708155
187,48.88746321108786
135,0.0
213,0.0
262,0.0
2,1,12,25, 0, 2,51.00,54.00,Sunday
7,13.900000000000002
8,62.6
9,2.41
10,209.2
11,0.0
12,0.0
13,0.0
14,0.0
15,0.0
16,0.0
17,0.0
18,0.0
19,0.0
20,15.10437868219136
21,0.0
22,0.0
23,0.0
24,0.0
25,0.0
26,2718.788162794445
27,0.0
28,0.0
29,0.0
30,0.0
31,0.0
32,0.0
33,0.0
34,44.94654606320588
35,0.0
36,0.0
37,0.0
38,0.0
39,0.0
40,8090.378291377058
41,0.0
42,0.0
43,0.0
44,0.0
45,0.0
46,0.0
47,0.0
48,17.792719109227104
288,-6.918392579245879
289,100.0
290,0.05
49,0.0
134,0.0
183,0.0
184,0.0
185,17.792719109227104
186,0.00666191966740814
187,48.91349003565838
135,0.0
213,0.0
262,0.0
2,1,12,25, 0, 2,54.00,57.00,Sunday
7,13.85
8,62.8
9,2.455
10,209.1
11,0.0
12,0.0
13,0.0
14,0.0
15,0.0
16,0.0
17,0.0
18,0.0
19,0.0
20,15.16877793471865
21,0.0
22,0.0
23,0.0
24,0.0
25,0.0
26,2730.380028249357
27,0.0
28,0.0
29,0.0
30,0.0
31,0.0
32,0.0
33,0.0
34,45.14927433247577
35,0.0
36,0.0
37,0.0
38,0.0
39,0.0
40,8126.869379845639
41,0.0
42,0.0
43,0.0
44,0.0
45,0.0
46,0.0
47,0.0
48,17.78024529523091
288,-6.924034639824774
289,100.0
290,0.05
49,0.0
134,0.0
183,0.0
184,0.0
185,17.78024529523091
186,0.0066603821123300926
187,48.94051598422814
135,0.0
213,0.0
262,0.0
2,1,12,25, 0, 2,57.00,60.00,Sunday
7,13.8
8,63.0
9,2.5
10,209.0
11,0.0
12,0.0
13,0.0
14,0.0
15,0.0
16,0.0
17,0.0
18,0.0
19,0.0
20,15.23338396804865
21,0.0
22,0.0
23,0.0
24,0.0
25,0.0
26,2742.0091142487568
27,0.0
28,0.0
29,0.0
30,0.0
31,0.0
32,0.0
33,0.0
34,45.35265943377189
35,0.0
36,0.0
37,0.0
38,0.0
39,0.0
40,8163.47869807894
41,0.0
42,0.0
43,0.0
44,0.0
45,0.0
46,0.0
47,0.0
48,17.767757234502433
288,-6.929690359270923
289,100.0
290,0.05
49,0.0
134,0.0
183,0.0
184,0.0
185,17.767757234502433
186,0.006658954066312054
187,48.96839891160426
135,0.0
213,0.0
262,0.0
2,1,12,25, 0, 3, 0.00, 3.00,Sunday
7,13.754999999999999
8,63.099999999999994
9,2.49
10,206.7
11,0.0
12,0.0
13,0.0
14,0.0
15,0.0
16,0.0
17,0.0
18,0.0
19,0.0
20,15.303624088719538
21,0.0
22,0.0
23,0.0
24,0.0
25,0.0
26,2754.6523359695166
27,0.0
28,0.0
29,0.0
30,0.0
31,0.0
32,0.0
33,0.0
34,45.5665731423126
35,0.0
36,0.0
37,0.0
38,0.0
39,0.0
40,8201.983165616268
41,0.0
42,0.0
43,0.0
44,0.0
45,0.0
46,0.0
47,0.0
48,17.755481815871118
288,-6.935280552171322
289,100.0
290,0.05
49,0.0
134,0.0
183,0.0
184,0.0
185,17.755481815871118
186,0.006657175014237932
187,48.99308363577841
135,0.0
213,0.0
262,0.0
2,1,12,25, 0, 3, 3.00, 6.00,Sunday
7,13.71
8,63.2
9,2.48
10,204.4
11,0.0
12,0.0
13,0.0
14,0.0
15,0.0
16,0.0
17,0.0
18,0.0
19,0.0
20,15.37370173509343
21,0.0
22,0.0
23,0.0
24,0.0
25,0.0
26,2767.266312316817
27,0.0
28,0.0
29,0.0
30,0.0
31,0.0
32,0.0
33,0.0
34,45.78034721257808
35,0.0
36,0.0
37,0.0
38,0.0
39,0.0
40,8240.462498264054
41,0.0
42,0.0
43,0.0
44,0.0
45,0.0
46,0.0
47,0.0
48,17.74348351585809
288,-6.940801740299333
289,100.0
290,0.05
49,0.0
134,0.0
183,0.0
184,0.0
185,17.74348351585809
186,0.006654788378317316
187,49.01250182458443
135,0.0
213,0.0
262,0.0