Program Version,EnergyPlus, Version 22.1.0-ed759b17ee, YMD=2022.07.06 15:55
1,5,Environment Title[],Latitude[deg],Longitude[deg],Time Zone[],Elevation[m]
2,8,Day of Simulation[],Month[],Day of Month[],DST Indicator[1=yes 0=no],Hour[],StartMinute[],EndMinute[],DayType
3,5,Cumulative Day of Simulation[],Month[],Day of Month[],DST Indicator[1=yes 0=no],DayType  ! When Daily Meters Requested
4,2,Cumulative Days of Simulation[],Month[]  ! When Monthly Meters Requested
5,1,Cumulative Days of Simulation[] ! When Run Period Meters Requested
6,1,Calendar Year of Simulation[] ! When Annual Meters Requested
213,1,Heating:DistrictHeating [J] !TimeStep
262,1,Cooling:DistrictCooling [J] !TimeStep
135,1,Cooling:EnergyTransfer [J] !TimeStep
End of Data Dictionary
1,DDMM, -32.90, -68.87,  -3.00, 676.00
2,1,12,25, 0, 1, 0.00, 3.00,Sunday
135,0.0
213,0.0
262,0.0
2,1,12,25, 0, 1, 3.00, 6.00,Sunday
135,56121.09627530857
213,27451.852920543748
262,59999.999999999985
2,1,12,25, 0, 1, 6.00, 9.00,Sunday
135,0.0
213,0.0
262,0.0
2,1,12,25, 0, 1, 9.00,12.00,Sunday
135,23194.543214603706
213,0.0
262,32532.60731880459
2,1,12,25, 0, 1,12.00,15.00,Sunday
135,84158.7964492077
213,24572.91610718961
262,90000.0
2,1,12,25, 0, 1,15.00,18.00,Sunday
135,0.0
213,0.0
262,0.0
2,1,12,25, 0, 1,18.00,21.00,Sunday
135,9533.361099733751
213,0.0
262,13340.323416305986
2,1,12,25, 0, 1,21.00,24.00,Sunday
135,57037.88335079795
213,18938.42052804232
262,59999.99999999998
2,1,12,25, 0, 1,24.00,27.00,Sunday
135,0.0
213,0.0
262,0.0
2,1,12,25, 0, 1,27.00,30.00,Sunday
135,0.0
213,0.0
262,0.0
2,1,12,25, 0, 1,30.00,33.00,Sunday
135,56748.08973354537
213,15871.822457882652
262,60000.000000000015
2,1,12,25, 0, 1,33.00,36.00,Sunday
135,0.0
213,0.0
262,0.0
2,1,12,25, 0, 1,36.00,39.00,Sunday
135,49644.259349239095
213,0.0
262,60000.00000000001
2,1,12,25, 0, 1,39.00,42.00,Sunday
135,0.0
213,0.0
262,0.0
2,1,12,25, 0, 1,42.00,45.00,Sunday
135,0.0
213,0.0
262,0.0
2,1,12,25, 0, 1,45.00,48.00,Sunday
135,54740.774991460356
213,0.0
262,59999.999999999985
2,1,12,25, 0, 1,48.00,51.00,Sunday
135,0.0
213,0.0
262,0.0
2,1,12,25, 0, 1,51.00,54.00,Sunday
135,0.0
213,0.0
262,0.0
2,1,12,25, 0, 1,54.00,57.00,Sunday
135,0.0
213,0.0
262,0.0
2,1,12,25, 0, 1,57.00,60.00,Sunday
135,85056.63527269295
213,20768.618311890576
262,89999.99999999999
2,1,12,25, 0, 2, 0.00, 3.00,Sunday
135,0.0
213,0.0
262,0.0
2,1,12,25, 0, 2, 3.00, 6.00,Sunday
135,0.0
213,0.0
262,0.0
2,1,12,25, 0, 2, 6.00, 9.00,Sunday
135,0.0
213,0.0
262,0.0
2,1,12,25, 0, 2, 9.00,12.00,Sunday
135,0.0
213,0.0
262,0.0
2,1,12,25, 0, 2,12.00,15.00,Sunday
135,0.0
213,0.0
262,0.0
2,1,12,25, 0, 2,15.00,18.00,Sunday
135,36675.21154134664
213,0.0
262,51483.80326091595
2,1,12,25, 0, 2,18.00,21.00,Sunday
135,0.0
213,0.0
262,0.0
2,1,12,25, 0, 2,21.00,24.00,Sunday
135,0.0
213,0.0
262,0.0
2,1,12,25, 0, 2,24.00,27.00,Sunday
135,29367.318715963007
213,0.0
262,40859.57793658505
2,1,12,25, 0, 2,27.00,30.00,Sunday
135,0.0
213,0.0
262,0.0
2,1,12,25, 0, 2,30.00,33.00,Sunday
135,0.0
213,0.0
262,0.0
2,1,12,25, 0, 2,33.00,36.00,Sunday
135,0.0
213,0.0
262,0.0
2,1,12,25, 0, 2,36.00,39.00,Sunday
135,8141.572414640059
213,0.0
262,11171.240935865962
2,1,12,25, 0, 2,39.00,42.00,Sunday
135,0.0
213,0.0
262,0.0
2,1,12,25, 0, 2,42.00,45.00,Sunday
135,0.0
213,0.0
262,0.0
2,1,12,25, 0, 2,45.00,48.00,Sunday
135,0.0
213,0.0
262,0.0
2,1,12,25, 0, 2,48.00,51.00,Sunday
135,0.0
213,0.0
262,0.0
2,1,12,25, 0, 2,51.00,54.00,Sunday
135,0.0
213,0.0
262,0.0
2,1,12,25, 0, 2,54.00,57.00,Sunday
135,0.0
213,0.0
262,0.0
2,1,12,25, 0, 2,57.00,60.00,Sunday
135,0.0
213,0.0
262,0.0
2,1,12,25, 0, 3, 0.00, 3.00,Sunday
135,0.0
213,0.0
262,0.0
2,1,12,25, 0, 3, 3.00, 6.00,Sunday
135,0.0
213,0.0
262,0.0
2,1,12,25, 0, 3, 6.00, 9.00,Sunday
135,0.0
213,0.0
262,0.0
2,1,12,25, 0, 3, 9.00,12.00,Sunday
135,0.0
213,0.0
262,0.0
2,1,12,25, 0, 3,12.00,15.00,Sunday
135,0.0
213,0.0
262,0.0
2,1,12,25, 0, 3,15.00,18.00,Sunday
135,0.0
213,0.0
262,0.0
2,1,12,25, 0, 3,18.00,21.00,Sunday
135,0.0
213,0.0
262,0.0
2,1,12,25, 0, 3,21.00,24.00,Sunday
135,0.0
213,0.0
262,0.0
2,1,12,25, 0, 3,24.00,27.00,Sunday
135,0.0
213,0.0
262,0.0
2,1,12,25, 0, 3,27.00,30.00,Sunday
135,0.0
213,0.0
262,0.0
2,1,12,25, 0, 3,30.00,33.00,Sunday
135,0.0
213,0.0
262,0.0
2,1,12,25, 0, 3,33.00,36.00,Sunday
135,0.0
213,0.0
262,0.0
2,1,12,25, 0, 3,36.00,39.00,Sunday
135,0.0
213,0.0
262,0.0
2,1,12,25, 0, 3,39.00,42.00,Sunday
135,0.0
213,0.0
262,0.0
2,1,12,25, 0, 3,42.00,45.00,Sunday
135,0.0
213,0.0
262,0.0
2,1,12,25, 0, 3,45.00,48.00,Sunday
135,0.0
213,0.0
262,0.0
2,1,12,25, 0, 3,48.00,51.00,Sunday
135,0.0
213,0.0
262,0.0
2,1,12,25, 0, 3,51.00,54.00,Sunday
135,0.0
213,0.0
262,0.0
2,1,12,25, 0, 3,54.00,57.00,Sunday
135,0.0
213,0.0
262,0.0
2,1,12,25, 0, 3,57.00,60.00,Sunday
135,0.0
213,0.0
262,0.0
2,1,12,25, 0, 4, 0.00, 3.00,Sunday
135,0.0
213,0.0
262,0.0
2,1,12,25, 0, 4, 3.00, 6.00,Sunday
135,0.0
213,0.0
262,0.0
2,1,12,25, 0, 4, 6.00, 9.00,Sunday
135,0.0
213,0.0
262,0.0
2,1,12,25, 0, 4, 9.00,12.00,Sunday
135,0.0
213,0.0
262,0.0
2,1,12,25, 0, 4,12.00,15.00,Sunday
135,0.0
213,0.0
262,0.0
2,1,12,25, 0, 4,15.00,18.00,Sunday
135,0.0
213,0.0
262,0.0
2,1,12,25, 0, 4,18.00,21.00,Sunday
135,0.0
213,0.0
262,0.0
2,1,12,25, 0, 4,21.00,24.00,Sunday
135,0.0
213,0.0
262,0.0
2,1,12,25, 0, 4,24.00,27.00,Sunday
135,0.0
213,0.0
262,0.0
2,1,12,25, 0, 4,27.00,30.00,Sunday
135,0.0
213,0.0
262,0.0
2,1,12,25, 0, 4,30.00,33.00,Sunday
135,0.0
213,0.0
262,0.0
2,1,12,25, 0, 4,33.00,36.00,Sunday
135,0.0
213,0.0
262,0.0
2,1,12,25, 0, 4,36.00,39.00,Sunday
135,0.0
213,0.0
262,0.0
2,1,12,25, 0, 4,39.00,42.00,Sunday
135,0.0
213,0.0
262,0.0
2,1,12,25, 0, 4,42.00,45.00,Sunday
135,0.0
213,0.0
262,0.0
2,1,12,25, 0, 4,45.00,48.00,Sunday
135,0.0
213,0.0
262,0.0
2,1,12,25, 0, 4,48.00,51.00,Sunday
135,0.0
213,0.0
262,0.0
2,1,12,25, 0, 4,51.00,54.00,Sunday
135,0.0
213,0.0
262,0.0
2,1,12,25, 0, 4,54.00,57.00,Sunday
135,0.0
213,0.0
262,0.0
2,1,12,25, 0, 4,57.00,60.00,Sunday
135,0.0
213,0.0
262,0.0
2,1,12,25, 0, 5, 0.00, 3.00,Sunday
135,0.0
213,0.0
262,0.0
2,1,12,25, 0, 5, 3.00, 6.00,Sunday
135,0.0
213,0.0
262,0.0
2,1,12,25, 0, 5, 6.00, 9.00,Sunday
135,0.0
213,0.0
262,0.0
2,1,12,25, 0, 5, 9.00,12.00,Sunday
135,0.0
213,0.0
262,0.0
2,1,12,25, 0, 5,12.00,15.00,Sunday
135,0.0
213,0.0
262,0.0
2,1,12,25, 0, 5,15.00,18.00,Sunday
135,0.0
213,0.0
262,0.0
2,1,12,25, 0, 5,18.00,21.00,Sunday
135,0.0
213,0.0
262,0.0
2,1,12,25, 0, 5,21.00,24.00,Sunday
135,0.0
213,0.0
262,0.0
2,1,12,25, 0, 5,24.00,27.00,Sunday
135,0.0
213,0.0
262,0.0
2,1,12,25, 0, 5,27.00,30.00,Sunday
135,0.0
213,0.0
262,0.0
2,1,12,25, 0, 5,30.00,33.00,Sunday
135,0.0
213,0.0
262,0.0
2,1,12,25, 0, 5,33.00,36.00,Sunday
135,0.0
213,0.0
262,0.0
2,1,12,25, 0, 5,36.00,39.00,Sunday
135,0.0
213,0.0
262,0.0
2,1,12,25, 0, 5,39.00,42.00,Sunday
135,0.0
213,0.0
262,0.0
2,1,12,25, 0, 5,42.00,45.00,Sunday
135,0.0
213,0.0
262,0.0
2,1,12,25, 0, 5,45.00,48.00,Sunday
135,0.0
213,0.0
262,0.0
2,1,12,25, 0, 5,48.00,51.00,Sunday
135,0.0
213,0.0
262,0.0
2,1,12,25, 0, 5,51.00,54.00,Sunday
135,0.0
213,0.0
262,0.0
2,1,12,25, 0, 5,54.00,57.00,Sunday
135,0.0
213,3399.333687766435
262,0.0
2,1,12,25, 0, 5,57.00,60.00,Sunday
135,0.0
213,3219.8935021610178
262,0.0
2,1,12,25, 0, 6, 0.00, 3.00,Sunday
135,0.0
213,4259.709043650509
262,0.0
2,1,12,25, 0, 6, 3.00, 6.00,Sunday
135,0.0
213,5287.4104217457525
262,0.0
2,1,12,25, 0, 6, 6.00, 9.00,Sunday
135,0.0
213,6198.006025044698
262,0.0
2,1,12,25, 0, 6, 9.00,12.00,Sunday
135,0.0
213,7101.5095323789665
262,0.0
2,1,12,25, 0, 6,12.00,15.00,Sunday
135,0.0
213,7998.526843550393
262,0.0
2,1,12,25, 0, 6,15.00,18.00,Sunday
135,0.0
213,8889.236234202477
262,0.0
2,1,12,25, 0, 6,18.00,21.00,Sunday
135,0.0
213,9773.956075710945
262,0.0
2,1,12,25, 0, 6,21.00,24.00,Sunday
135,0.0
213,10652.757639896898
262,0.0
2,1,12,25, 0, 6,24.00,27.00,Sunday
135,0.0
213,11525.846090259402
262,0.0
2,1,12,25, 0, 6,27.00,30.00,Sunday
135,0.0
213,12393.254118138015
262,0.0
2,1,12,25, 0, 6,30.00,33.00,Sunday
135,0.0
213,13255.12381694345
262,0.0
2,1,12,25, 0, 6,33.00,36.00,Sunday
135,0.0
213,14111.473858644738
262,0.0
2,1,12,25, 0, 6,36.00,39.00,Sunday
135,0.0
213,14962.40486613223
262,0.0
2,1,12,25, 0, 6,39.00,42.00,Sunday
135,0.0
213,15807.931492889687
262,0.0
2,1,12,25, 0, 6,42.00,45.00,Sunday
135,0.0
213,16648.12486709623
262,0.0
2,1,12,25, 0, 6,45.00,48.00,Sunday
135,0.0
213,17483.000686095245
262,0.0
2,1,12,25, 0, 6,48.00,51.00,Sunday
135,0.0
213,18312.60857260053
262,0.0
2,1,12,25, 0, 6,51.00,54.00,Sunday
135,0.0
213,19136.967800960658
262,0.0
2,1,12,25, 0, 6,54.00,57.00,Sunday
135,0.0
213,19956.112117430817
262,0.0
2,1,12,25, 0, 6,57.00,60.00,Sunday
135,0.0
213,20770.0652510919
262,0.0
2,1,12,25, 0, 7, 0.00, 3.00,Sunday
135,0.0
213,21374.799101021723
262,0.0
2,1,12,25, 0, 7, 3.00, 6.00,Sunday
135,0.0
213,21970.56218824665
262,0.0
2,1,12,25, 0, 7, 6.00, 9.00,Sunday
135,0.0
213,22562.31387891977
262,0.0
2,1,12,25, 0, 7, 9.00,12.00,Sunday
135,0.0
213,23150.222264802822
262,0.0
2,1,12,25, 0, 7,12.00,15.00,Sunday
135,0.0
213,23734.336153610384
262,0.0
2,1,12,25, 0, 7,15.00,18.00,Sunday
135,0.0
213,24314.631218623104
262,0.0
2,1,12,25, 0, 7,18.00,21.00,Sunday
135,0.0
213,24891.097790293963
262,0.0
2,1,12,25, 0, 7,21.00,24.00,Sunday
135,0.0
213,25463.719743624944
262,0.0
2,1,12,25, 0, 7,24.00,27.00,Sunday
135,0.0
213,26032.48985154427
262,0.0
2,1,12,25, 0, 7,27.00,30.00,Sunday
135,0.0
213,26549.882081841697
262,0.0
2,1,12,25, 0, 7,30.00,33.00,Sunday
135,0.0
213,26944.69463334809
262,0.0
2,1,12,25, 0, 7,33.00,36.00,Sunday
135,0.0
213,27263.57717153368
262,0.0
2,1,12,25, 0, 7,36.00,39.00,Sunday
135,0.0
213,27575.277864080155
262,0.0
2,1,12,25, 0, 7,39.00,42.00,Sunday
135,0.0
213,27868.595300885507
262,0.0
2,1,12,25, 0, 7,42.00,45.00,Sunday
135,0.0
213,28089.936516321468
262,0.0
2,1,12,25, 0, 7,45.00,48.00,Sunday
135,0.0
213,28355.798490981026
262,0.0
2,1,12,25, 0, 7,48.00,51.00,Sunday
135,0.0
213,28605.044629111107
262,0.0
2,1,12,25, 0, 7,51.00,54.00,Sunday
135,0.0
213,28841.945029846134
262,0.0
2,1,12,25, 0, 7,54.00,57.00,Sunday
135,0.0
213,28931.50994054845
262,0.0
2,1,12,25, 0, 7,57.00,60.00,Sunday
135,0.0
213,29132.43536973782
262,0.0
2,1,12,25, 0, 8, 0.00, 3.00,Sunday
135,0.0
213,22751.118912780228
262,0.0
2,1,12,25, 0, 8, 3.00, 6.00,Sunday
135,0.0
213,22028.443751726965
262,0.0
2,1,12,25, 0, 8, 6.00, 9.00,Sunday
135,0.0
213,21313.28411377524
262,0.0
2,1,12,25, 0, 8, 9.00,12.00,Sunday
135,0.0
213,20600.32811096834
262,0.0
2,1,12,25, 0, 8,12.00,15.00,Sunday
135,0.0
213,19890.132013838745
262,0.0
2,1,12,25, 0, 8,15.00,18.00,Sunday
135,0.0
213,19181.806193817352
262,0.0
2,1,12,25, 0, 8,18.00,21.00,Sunday
135,0.0
213,18525.810186898052
262,0.0
2,1,12,25, 0, 8,21.00,24.00,Sunday
135,0.0
213,17819.07207077529
262,0.0
2,1,12,25, 0, 8,24.00,27.00,Sunday
135,0.0
213,17115.12320789836
262,0.0
2,1,12,25, 0, 8,27.00,30.00,Sunday
135,0.0
213,16411.503069011407
262,0.0
2,1,12,25, 0, 8,30.00,33.00,Sunday
135,0.0
213,15732.007132180417
262,0.0
2,1,12,25, 0, 8,33.00,36.00,Sunday
135,0.0
213,15058.980130426793
262,0.0
2,1,12,25, 0, 8,36.00,39.00,Sunday
135,0.0
213,14389.68661207411
262,0.0
2,1,12,25, 0, 8,39.00,42.00,Sunday
135,0.0
213,13722.786737377697
262,0.0
2,1,12,25, 0, 8,42.00,45.00,Sunday
135,0.0
213,13057.711582266938
262,0.0
2,1,12,25, 0, 8,45.00,48.00,Sunday
135,0.0
213,12397.147057579159
262,0.0
2,1,12,25, 0, 8,48.00,51.00,Sunday
135,0.0
213,11734.719832030198
262,0.0
2,1,12,25, 0, 8,51.00,54.00,Sunday
135,0.0
213,11071.794418906704
262,0.0
2,1,12,25, 0, 8,54.00,57.00,Sunday
135,0.0
213,10408.576502488235
262,0.0
2,1,12,25, 0, 8,57.00,60.00,Sunday
135,0.0
213,9744.480499584502
262,0.0
2,1,12,25, 0, 9, 0.00, 3.00,Sunday
135,0.0
213,8790.938542264674
262,0.0
2,1,12,25, 0, 9, 3.00, 6.00,Sunday
135,0.0
213,7836.650696590758
262,0.0
2,1,12,25, 0, 9, 6.00, 9.00,Sunday
135,0.0
213,6881.605364442939
262,0.0
2,1,12,25, 0, 9, 9.00,12.00,Sunday
135,0.0
213,5924.880986502897
262,0.0
2,1,12,25, 0, 9,12.00,15.00,Sunday
135,0.0
213,4966.047787742494
262,0.0
2,1,12,25, 0, 9,15.00,18.00,Sunday
135,0.0
213,4004.1826981492204
262,0.0
2,1,12,25, 0, 9,18.00,21.00,Sunday
135,0.0
213,3039.0645546862074
262,0.0
2,1,12,25, 0, 9,21.00,24.00,Sunday
135,0.0
213,2069.9163041929105
262,0.0
2,1,12,25, 0, 9,24.00,27.00,Sunday
135,0.0
213,1096.675005779647
262,0.0
2,1,12,25, 0, 9,27.00,30.00,Sunday
135,0.0
213,118.63334347946937
262,0.0
2,1,12,25, 0, 9,30.00,33.00,Sunday
135,0.0
213,0.0
262,0.0
2,1,12,25, 0, 9,33.00,36.00,Sunday
135,0.0
213,0.0
262,0.0
2,1,12,25, 0, 9,36.00,39.00,Sunday
135,0.0
213,0.0
262,0.0
2,1,12,25, 0, 9,39.00,42.00,Sunday
135,0.0
213,0.0
262,0.0
2,1,12,25, 0, 9,42.00,45.00,Sunday
135,0.0
213,0.0
262,0.0
2,1,12,25, 0, 9,45.00,48.00,Sunday
135,0.0
213,0.0
262,0.0
2,1,12,25, 0, 9,48.00,51.00,Sunday
135,0.0
213,0.0
262,0.0
2,1,12,25, 0, 9,51.00,54.00,Sunday
135,0.0
213,0.0
262,0.0
2,1,12,25, 0, 9,54.00,57.00,Sunday
135,0.0
213,0.0
262,0.0
2,1,12,25, 0, 9,57.00,60.00,Sunday
135,0.0
213,0.0
262,0.0
2,1,12,25, 0,10, 0.00, 3.00,Sunday
135,0.0
213,0.0
262,0.0
2,1,12,25, 0,10, 3.00, 6.00,Sunday
135,0.0
213,0.0
262,0.0
2,1,12,25, 0,10, 6.00, 9.00,Sunday
135,0.0
213,0.0
262,0.0
2,1,12,25, 0,10, 9.00,12.00,Sunday
135,0.0
213,0.0
262,0.0
2,1,12,25, 0,10,12.00,15.00,Sunday
135,0.0
213,0.0
262,0.0
2,1,12,25, 0,10,15.00,18.00,Sunday
135,0.0
213,0.0
262,0.0
2,1,12,25, 0,10,18.00,21.00,Sunday
135,0.0
213,0.0
262,0.0
2,1,12,25, 0,10,21.00,24.00,Sunday
135,0.0
213,0.0
262,0.0
2,1,12,25, 0,10,24.00,27.00,Sunday
135,0.0
213,0.0
262,0.0
2,1,12,25, 0,10,27.00,30.00,Sunday
135,0.0
213,0.0
262,0.0
2,1,12,25, 0,10,30.00,33.00,Sunday
135,0.0
213,0.0
262,0.0
2,1,12,25, 0,10,33.00,36.00,Sunday
135,0.0
213,0.0
262,0.0
2,1,12,25, 0,10,36.00,39.00,Sunday
135,0.0
213,0.0
262,0.0
2,1,12,25, 0,10,39.00,42.00,Sunday
135,0.0
213,0.0
262,0.0
2,1,12,25, 0,10,42.00,45.00,Sunday
135,0.0
213,0.0
262,0.0
2,1,12,25, 0,10,45.00,48.00,Sunday
135,0.0
213,0.0
262,0.0
2,1,12,25, 0,10,48.00,51.00,Sunday
135,0.0
213,0.0
262,0.0
2,1,12,25, 0,10,51.00,54.00,Sunday
135,0.0
213,0.0
262,0.0
2,1,12,25, 0,10,54.00,57.00,Sunday
135,0.0
213,0.0
262,0.0
2,1,12,25, 0,10,57.00,60.00,Sunday
135,0.0
213,0.0
262,0.0
2,1,12,25, 0,11, 0.00, 3.00,Sunday
135,0.0
213,0.0
262,0.0
2,1,12,25, 0,11, 3.00, 6.00,Sunday
135,0.0
213,0.0
262,0.0
2,1,12,25, 0,11, 6.00, 9.00,Sunday
135,0.0
213,0.0
262,0.0
2,1,12,25, 0,11, 9.00,12.00,Sunday
135,0.0
213,0.0
262,0.0
2,1,12,25, 0,11,12.00,15.00,Sunday
135,0.0
213,0.0
262,0.0
2,1,12,25, 0,11,15.00,18.00,Sunday
135,0.0
213,0.0
262,0.0
2,1,12,25, 0,11,18.00,21.00,Sunday
135,0.0
213,0.0
262,0.0
2,1,12,25, 0,11,21.00,24.00,Sunday
135,0.0
213,0.0
262,0.0
2,1,12,25, 0,11,24.00,27.00,Sunday
135,0.0
213,0.0
262,0.0
2,1,12,25, 0,11,27.00,30.00,Sunday
135,0.0
213,0.0
262,0.0
2,1,12,25, 0,11,30.00,33.00,Sunday
135,0.0
213,0.0
262,0.0
2,1,12,25, 0,11,33.00,36.00,Sunday
135,0.0
213,0.0
262,0.0
2,1,12,25, 0,11,36.00,39.00,Sunday
135,0.0
213,0.0
262,0.0
2,1,12,25, 0,11,39.00,42.00,Sunday
135,0.0
213,0.0
262,0.0
2,1,12,25, 0,11,42.00,45.00,Sunday
135,0.0
213,0.0
262,0.0
2,1,12,25, 0,11,45.00,48.00,Sunday
135,32582.252535104977
213,0.0
262,46584.109295752256
2,1,12,25, 0,11,48.00,51.00,Sunday
135,0.0
213,0.0
262,0.0
2,1,12,25, 0,11,51.00,54.00,Sunday
135,0.0
213,0.0
262,0.0
2,1,12,25, 0,11,54.00,57.00,Sunday
135,0.0
213,0.0
262,0.0
2,1,12,25, 0,11,57.00,60.00,Sunday
135,0.0
213,0.0
262,0.0
2,1,12,25, 0,12, 0.00, 3.00,Sunday
135,26345.50578310083
213,0.0
262,37217.129249856625
2,1,12,25, 0,12, 3.00, 6.00,Sunday
135,0.0
213,0.0
262,0.0
2,1,12,25, 0,12, 6.00, 9.00,Sunday
135,0.0
213,0.0
262,0.0
2,1,12,25, 0,12, 9.00,12.00,Sunday
135,54093.00663128578
213,0.0
262,89999.99999999999
2,1,12,25, 0,12,12.00,15.00,Sunday
135,0.0
213,0.0
262,0.0
2,1,12,25, 0,12,15.00,18.00,Sunday
135,0.0
213,0.0
262,0.0
2,1,12,25, 0,12,18.00,21.00,Sunday
135,40023.024099882634
213,0.0
262,56056.60289633829
2,1,12,25, 0,12,21.00,24.00,Sunday
135,0.0
213,0.0
262,0.0
2,1,12,25, 0,12,24.00,27.00,Sunday
135,0.0
213,0.0
262,0.0
2,1,12,25, 0,12,27.00,30.00,Sunday
135,33997.72993482431
213,0.0
262,47211.11030883337
2,1,12,25, 0,12,30.00,33.00,Sunday
135,0.0
213,0.0
262,0.0
2,1,12,25, 0,12,33.00,36.00,Sunday
135,42118.2469992947
213,0.0
262,58059.51909419466
2,1,12,25, 0,12,36.00,39.00,Sunday
135,0.0
213,0.0
262,0.0
2,1,12,25, 0,12,39.00,42.00,Sunday
135,59118.13155587149
213,0.0
262,90000.0
2,1,12,25, 0,12,42.00,45.00,Sunday
135,0.0
213,0.0
262,0.0
2,1,12,25, 0,12,45.00,48.00,Sunday
135,50236.16921980218
213,0.0
262,67169.86161608735
2,1,12,25, 0,12,48.00,51.00,Sunday
135,0.0
213,0.0
262,0.0
2,1,12,25, 0,12,51.00,54.00,Sunday
135,41347.218694812334
213,0.0
262,60000.0
2,1,12,25, 0,12,54.00,57.00,Sunday
135,0.0
213,0.0
262,0.0
2,1,12,25, 0,12,57.00,60.00,Sunday
135,0.0
213,0.0
262,0.0
2,1,12,25, 0,13, 0.00, 3.00,Sunday
135,56618.31028482962
213,30983.57317159249
262,60000.0
2,1,12,25, 0,13, 3.00, 6.00,Sunday
135,0.0
213,0.0
262,0.0
2,1,12,25, 0,13, 6.00, 9.00,Sunday
135,85029.93440624289
213,29794.29033523819
262,89999.99999999994
2,1,12,25, 0,13, 9.00,12.00,Sunday
135,0.0
213,0.0
262,0.0
2,1,12,25, 0,13,12.00,15.00,Sunday
135,52427.746426307574
213,0.0
262,60000.00000000001
2,1,12,25, 0,13,15.00,18.00,Sunday
135,0.0
213,0.0
262,0.0
2,1,12,25, 0,13,18.00,21.00,Sunday
135,39120.86455683992
213,0.0
262,60000.0
2,1,12,25, 0,13,21.00,24.00,Sunday
135,0.0
213,0.0
262,0.0
2,1,12,25, 0,13,24.00,27.00,Sunday
135,25142.84270923463
213,0.0
262,34357.793350397515
2,1,12,25, 0,13,27.00,30.00,Sunday
135,60830.023230464794
213,0.0
262,83805.93973963366
2,1,12,25, 0,13,30.00,33.00,Sunday
135,0.0
213,0.0
262,0.0
2,1,12,25, 0,13,33.00,36.00,Sunday
135,66391.16947252222
213,21495.559066872178
262,71696.3276966884
2,1,12,25, 0,13,36.00,39.00,Sunday
135,82583.56156634346
213,53420.061271657534
262,89999.99999999994
2,1,12,25, 0,13,39.00,42.00,Sunday
135,0.0
213,0.0
262,0.0
2,1,12,25, 0,13,42.00,45.00,Sunday
135,84860.25780923324
213,23771.31809014435
262,89999.99999999991
2,1,12,25, 0,13,45.00,48.00,Sunday
135,0.0
213,0.0
262,0.0
2,1,12,25, 0,13,48.00,51.00,Sunday
135,0.0
213,0.0
262,0.0
2,1,12,25, 0,13,51.00,54.00,Sunday
135,83922.97785858129
213,72495.7670115777
262,89999.99999999991
2,1,12,25, 0,13,54.00,57.00,Sunday
135,0.0
213,0.0
262,0.0
2,1,12,25, 0,13,57.00,60.00,Sunday
135,41250.401574609394
213,0.0
262,59999.99999999999
2,1,12,25, 0,14, 0.00, 3.00,Sunday
135,82011.25113120527
213,30626.75214141512
262,90000.00000000001
2,1,12,25, 0,14, 3.00, 6.00,Sunday
135,0.0
213,0.0
262,0.0
2,1,12,25, 0,14, 6.00, 9.00,Sunday
135,0.0
213,0.0
262,0.0
2,1,12,25, 0,14, 9.00,12.00,Sunday
135,70394.51239664787
213,0.0
262,89999.99999999999
2,1,12,25, 0,14,12.00,15.00,Sunday
135,0.0
213,0.0
262,0.0
2,1,12,25, 0,14,15.00,18.00,Sunday
135,82483.98753082802
213,36325.9102700687
262,89999.99999999999
2,1,12,25, 0,14,18.00,21.00,Sunday
135,0.0
213,0.0
262,0.0
2,1,12,25, 0,14,21.00,24.00,Sunday
135,92857.8970945475
213,0.0
262,137115.11633190952
2,1,12,25, 0,14,24.00,27.00,Sunday
135,0.0
213,0.0
262,0.0
2,1,12,25, 0,14,27.00,30.00,Sunday
135,82916.31656889609
213,40871.579558518344
262,89999.9999999999
2,1,12,25, 0,14,30.00,33.00,Sunday
135,0.0
213,0.0
262,0.0
2,1,12,25, 0,14,33.00,36.00,Sunday
135,85674.34710405611
213,30768.64328687843
262,89999.9999999999
2,1,12,25, 0,14,36.00,39.00,Sunday
135,83379.6182760543
213,24708.269717957584
262,90000.0
2,1,12,25, 0,14,39.00,42.00,Sunday
135,0.0
213,0.0
262,0.0
2,1,12,25, 0,14,42.00,45.00,Sunday
135,57225.128071229126
213,11614.098444365043
262,59999.999999999956
2,1,12,25, 0,14,45.00,48.00,Sunday
135,80525.74021746406
213,31635.915516335204
262,89999.99999999997
2,1,12,25, 0,14,48.00,51.00,Sunday
135,55884.44412797393
213,18530.665010854245
262,60000.00000000001
2,1,12,25, 0,14,51.00,54.00,Sunday
135,56124.35435816411
213,18198.20971391497
262,59999.99999999994
2,1,12,25, 0,14,54.00,57.00,Sunday
135,55789.77866563309
213,19185.901538941365
262,59999.99999999995
2,1,12,25, 0,14,57.00,60.00,Sunday
135,55357.23442212185
213,20540.816365028175
262,59999.99999999995
2,1,12,25, 0,15, 0.00, 3.00,Sunday
135,54837.403721200935
213,21935.36544094904
262,59999.99999999995
2,1,12,25, 0,15, 3.00, 6.00,Sunday
135,91764.3281470226
213,12873.10471079455
262,119999.99999999994
2,1,12,25, 0,15, 6.00, 9.00,Sunday
135,56795.136523532274
213,22192.63695092011
262,59999.99999999989
2,1,12,25, 0,15, 9.00,12.00,Sunday
135,55534.28111689116
213,27846.91614306793
262,59999.99999999999
2,1,12,25, 0,15,12.00,15.00,Sunday
135,62939.405335911615
213,0.0
262,90000.0
2,1,12,25, 0,15,15.00,18.00,Sunday
135,59813.691879172555
213,0.0
262,90000.0
2,1,12,25, 0,15,18.00,21.00,Sunday
135,86568.68472918184
213,31467.02775983782
262,90000.0
2,1,12,25, 0,15,21.00,24.00,Sunday
135,82153.59192556587
213,71409.06027140866
262,89999.99999999974
2,1,12,25, 0,15,24.00,27.00,Sunday
135,85272.91580574257
213,16883.94643619921
262,89999.99999999997
2,1,12,25, 0,15,27.00,30.00,Sunday
135,0.0
213,0.0
262,0.0
2,1,12,25, 0,15,30.00,33.00,Sunday
135,87935.5748845777
213,48887.68747346519
262,89999.99999999996
2,1,12,25, 0,15,33.00,36.00,Sunday
135,56423.99104754846
213,19445.49108437084
262,59999.999999999985
2,1,12,25, 0,15,36.00,39.00,Sunday
135,55247.96422106482
213,0.0
262,90000.00000000001
2,1,12,25, 0,15,39.00,42.00,Sunday
135,56301.55593145686
213,27880.617461986025
262,60000.000000000015
2,1,12,25, 0,15,42.00,45.00,Sunday
135,75405.91218860402
213,0.0
262,90000.00000000001
2,1,12,25, 0,15,45.00,48.00,Sunday
135,81049.54821277934
213,80539.36761676248
262,89999.99999999987
2,1,12,25, 0,15,48.00,51.00,Sunday
135,80978.57346961509
213,27753.303520156143
262,89999.99999999991
2,1,12,25, 0,15,51.00,54.00,Sunday
135,55083.41882223307
213,28547.696623044863
262,60000.0
2,1,12,25, 0,15,54.00,57.00,Sunday
135,82934.24418576846
213,14574.03237718501
262,89999.99999999988
2,1,12,25, 0,15,57.00,60.00,Sunday
135,81352.27743350933
213,52169.709090249904
262,90000.00000000006
2,1,12,25, 0,16, 0.00, 3.00,Sunday
135,80377.24768765054
213,22238.407427446957
262,90000.0
2,1,12,25, 0,16, 3.00, 6.00,Sunday
135,97203.19717606169
213,12078.477121472562
262,119999.99999999994
2,1,12,25, 0,16, 6.00, 9.00,Sunday
135,56799.80760959982
213,0.0
262,90000.0
2,1,12,25, 0,16, 9.00,12.00,Sunday
135,86289.66414963073
213,36290.609636352354
262,89999.99999999981
2,1,12,25, 0,16,12.00,15.00,Sunday
135,88036.11084496087
213,9076.525880453899
262,89999.99999999996
2,1,12,25, 0,16,15.00,18.00,Sunday
135,82265.24042671383
213,76047.64792292153
262,90000.00000000004
2,1,12,25, 0,16,18.00,21.00,Sunday
135,80540.41877995145
213,31010.222456067782
262,89999.99999999999
2,1,12,25, 0,16,21.00,24.00,Sunday
135,94949.2125320485
213,20554.215320810243
262,120000.0
2,1,12,25, 0,16,24.00,27.00,Sunday
135,68214.39375346537
213,0.0
262,89999.99999999999
2,1,12,25, 0,16,27.00,30.00,Sunday
135,87490.44221563824
213,23726.56320715092
262,89999.99999999999
2,1,12,25, 0,16,30.00,33.00,Sunday
135,106418.56598305138
213,0.0
262,180000.0
2,1,12,25, 0,16,33.00,36.00,Sunday
135,85943.03383718316
213,46986.28698448201
262,89999.99999999999
2,1,12,25, 0,16,36.00,39.00,Sunday
135,86647.9716041236
213,24741.604820972883
262,89999.99999999999
2,1,12,25, 0,16,39.00,42.00,Sunday
135,105029.0922593573
213,0.0
262,179999.99999999997
2,1,12,25, 0,16,42.00,45.00,Sunday
135,85671.9723313903
213,51604.90778005411
262,89999.99999999994
2,1,12,25, 0,16,45.00,48.00,Sunday
135,86208.00437412962
213,29434.61958208505
262,89999.99999999999
2,1,12,25, 0,16,48.00,51.00,Sunday
135,87810.57092685429
213,15056.112385872759
262,89999.99999999999
2,1,12,25, 0,16,51.00,54.00,Sunday
135,108891.95184859817
213,0.0
262,180000.0
2,1,12,25, 0,16,54.00,57.00,Sunday
135,86004.42664127107
213,49779.22953137233
262,89999.99999999999
2,1,12,25, 0,16,57.00,60.00,Sunday
135,86062.51760135697
213,31492.74334799331
262,89999.99999999987
2,1,12,25, 0,17, 0.00, 3.00,Sunday
135,87337.648498416
213,18787.92681773929
262,89999.99999999999
2,1,12,25, 0,17, 3.00, 6.00,Sunday
135,85628.3796121869
213,0.0
262,90000.00000000001
2,1,12,25, 0,17, 6.00, 9.00,Sunday
135,88186.66441273887
213,5382.932851250087
262,89999.99999999993
2,1,12,25, 0,17, 9.00,12.00,Sunday
135,64373.208083248806
213,0.0
262,89999.99999999999
2,1,12,25, 0,17,12.00,15.00,Sunday
135,83654.6937190943
213,85077.85753035481
262,89999.99999999991
2,1,12,25, 0,17,15.00,18.00,Sunday
135,83946.68600933661
213,47623.404824873185
262,90000.00000000001
2,1,12,25, 0,17,18.00,21.00,Sunday
135,85271.64653070152
213,29192.030327095534
262,90000.00000000001
2,1,12,25, 0,17,21.00,24.00,Sunday
135,86148.57037512936
213,21936.732226896314
262,90000.0
2,1,12,25, 0,17,24.00,27.00,Sunday
135,86773.95320610663
213,18202.088616700607
262,89999.99999999996
2,1,12,25, 0,17,27.00,30.00,Sunday
135,87224.43911775494
213,16092.681785788274
262,89999.99999999996
2,1,12,25, 0,17,30.00,33.00,Sunday
135,87527.44160121158
213,15014.580311475573
262,90000.00000000001
2,1,12,25, 0,17,33.00,36.00,Sunday
135,87707.66582318173
213,14664.912682256248
262,90000.00000000001
2,1,12,25, 0,17,36.00,39.00,Sunday
135,87787.06591102875
213,14874.832742136858
262,89999.99999999999
2,1,12,25, 0,17,39.00,42.00,Sunday
135,87784.80447393918
213,15522.999639181597
262,90000.0
2,1,12,25, 0,17,42.00,45.00,Sunday
135,87716.3036186591
213,16505.778580803337
262,89999.99999999999
2,1,12,25, 0,17,45.00,48.00,Sunday
135,87592.65712167956
213,17732.892126868795
262,90000.0
2,1,12,25, 0,17,48.00,51.00,Sunday
135,87421.93199887862
213,19111.301465744134
262,90000.00000000001
2,1,12,25, 0,17,51.00,54.00,Sunday
135,87211.33826818725
213,20535.23302242653
262,89999.99999999994
2,1,12,25, 0,17,54.00,57.00,Sunday
135,86967.884468124
213,21899.98146769294
262,90000.00000000001
2,1,12,25, 0,17,57.00,60.00,Sunday
135,86697.75272461986
213,23121.468699285935
262,89999.99999999997
2,1,12,25, 0,18, 0.00, 3.00,Sunday
135,86425.97636610174
213,23854.939209704666
262,89999.99999999983
2,1,12,25, 0,18, 3.00, 6.00,Sunday
135,86181.6589802246
213,24196.16488194068
262,89999.9999999999
2,1,12,25, 0,18, 6.00, 9.00,Sunday
135,85960.84532735875
213,24333.158043828367
262,90000.0
2,1,12,25, 0,18, 9.00,12.00,Sunday
135,85756.60485602474
213,24381.203663384214
262,89999.99999999997
2,1,12,25, 0,18,12.00,15.00,Sunday
135,85564.49260672787
213,24404.93626561394
262,89999.99999999996
2,1,12,25, 0,18,15.00,18.00,Sunday
135,85381.3226600644
213,24439.675998635197
262,89999.99999999999
2,1,12,25, 0,18,18.00,21.00,Sunday
135,85204.6417007149
213,24501.817089713884
262,90000.0
2,1,12,25, 0,18,21.00,24.00,Sunday
135,85035.61662901504
213,24534.74662116555
262,90000.0
2,1,12,25, 0,18,24.00,27.00,Sunday
135,84879.35744618074
213,24617.288256627395
262,89999.99999999984
2,1,12,25, 0,18,27.00,30.00,Sunday
135,84723.47414475928
213,24758.901598027238
262,89999.99999999994
2,1,12,25, 0,18,30.00,33.00,Sunday
135,84566.40204466128
213,24933.49699355596
262,89999.99999999994
2,1,12,25, 0,18,33.00,36.00,Sunday
135,84409.16517087127
213,25126.701617639956
262,89999.99999999997
2,1,12,25, 0,18,36.00,39.00,Sunday
135,84252.05935327224
213,25332.07139745648
262,90000.00000000001
2,1,12,25, 0,18,39.00,42.00,Sunday
135,84095.02372067046
213,25545.48790117083
262,89999.99999999993
2,1,12,25, 0,18,42.00,45.00,Sunday
135,83938.01319236432
213,25764.05628418744
262,89999.99999999988
2,1,12,25, 0,18,45.00,48.00,Sunday
135,83781.00478181876
213,25985.733381748287
262,90000.00000000001
2,1,12,25, 0,18,48.00,51.00,Sunday
135,83624.00568756198
213,26209.174483870614
262,89999.99999999988
2,1,12,25, 0,18,51.00,54.00,Sunday
135,83467.03416719132
213,26433.414517267505
262,89999.99999999994
2,1,12,25, 0,18,54.00,57.00,Sunday
135,83310.13479651479
213,26657.890566562968
262,89999.99999999996
2,1,12,25, 0,18,57.00,60.00,Sunday
135,83153.34606913566
213,26882.196483778127
262,90000.00000000004
2,1,12,25, 0,19, 0.00, 3.00,Sunday
135,82995.57101188911
213,26929.305863717615
262,90000.00000000001
2,1,12,25, 0,19, 3.00, 6.00,Sunday
135,82880.77569770365
213,26870.17225741777
262,89999.99999999984
2,1,12,25, 0,19, 6.00, 9.00,Sunday
135,82805.24459646051
213,26790.802883743916
262,89999.99999999999
2,1,12,25, 0,19, 9.00,12.00,Sunday
135,82760.01259626313
213,26719.889237532
262,89999.99999999983
2,1,12,25, 0,19,12.00,15.00,Sunday
135,82739.13322313363
213,26663.996898690708
262,89999.99999999999
2,1,12,25, 0,19,15.00,18.00,Sunday
135,82738.02298701936
213,26622.97764046955
262,90000.0
2,1,12,25, 0,19,18.00,21.00,Sunday
135,82753.02893330735
213,26594.638053077244
262,89999.9999999998
2,1,12,25, 0,19,21.00,24.00,Sunday
135,82781.16384844609
213,26575.96365958664
262,90000.0
2,1,12,25, 0,19,24.00,27.00,Sunday
135,82820.0766777745
213,26564.446555381535
262,89999.99999999996
2,1,12,25, 0,19,27.00,30.00,Sunday
135,82867.82508921661
213,26557.776774367907
262,90000.00000000001
2,1,12,25, 0,19,30.00,33.00,Sunday
135,82922.90758531194
213,26547.938659526833
262,90000.00000000004
2,1,12,25, 0,19,33.00,36.00,Sunday
135,82985.72655807037
213,26532.949040543248
262,90000.00000000004
2,1,12,25, 0,19,36.00,39.00,Sunday
135,83055.90061043731
213,26513.865423338993
262,89999.99999999997
2,1,12,25, 0,19,39.00,42.00,Sunday
135,83132.60442793938
213,26490.904034789088
262,89999.99999999999
2,1,12,25, 0,19,42.00,45.00,Sunday
135,83215.16518818737
213,26464.24210130216
262,90000.00000000001
2,1,12,25, 0,19,45.00,48.00,Sunday
135,83302.93259268522
213,26433.44567088711
262,89999.99999999999
2,1,12,25, 0,19,48.00,51.00,Sunday
135,83395.41661265801
213,26398.425500227662
262,90000.0
2,1,12,25, 0,19,51.00,54.00,Sunday
135,83492.13342837559
213,26358.59335290466
262,89999.99999999991
2,1,12,25, 0,19,54.00,57.00,Sunday
135,83592.73919078182
213,26313.78277192295
262,90000.00000000001
2,1,12,25, 0,19,57.00,60.00,Sunday
135,83696.88037162693
213,26263.34390455823
262,89999.99999999999
2,1,12,25, 0,20, 0.00, 3.00,Sunday
135,83809.60543719442
213,26029.59278720333
262,89999.99999999991
2,1,12,25, 0,20, 3.00, 6.00,Sunday
135,83963.76228180644
213,25621.19619461439
262,90000.00000000001
2,1,12,25, 0,20, 6.00, 9.00,Sunday
135,84155.76055163854
213,25122.81507137631
262,89999.99999999977