Program Version,EnergyPlus, Version 22.1.0-ed759b17ee, YMD=2022.07.19 11:55
1,5,Environment Title[],Latitude[deg],Longitude[deg],Time Zone[],Elevation[m]
2,8,Day of Simulation[],Month[],Day of Month[],DST Indicator[1=yes 0=no],Hour[],StartMinute[],EndMinute[],DayType
3,5,Cumulative Day of Simulation[],Month[],Day of Month[],DST Indicator[1=yes 0=no],DayType  ! When Daily Meters Requested
4,2,Cumulative Days of Simulation[],Month[]  ! When Monthly Meters Requested
5,1,Cumulative Days of Simulation[] ! When Run Period Meters Requested
6,1,Calendar Year of Simulation[] ! When Annual Meters Requested
213,1,Heating:DistrictHeating [J] !TimeStep
262,1,Cooling:DistrictCooling [J] !TimeStep
135,1,Cooling:EnergyTransfer [J] !TimeStep
End of Data Dictionary
1,DDMM, -32.90, -68.87,  -3.00, 676.00
2,1,12,25, 0, 1, 0.00, 3.00,Sunday
135,0.0
213,0.0
262,0.0
2,1,12,25, 0, 1, 3.00, 6.00,Sunday
135,0.0
213,0.0
262,0.0
2,1,12,25, 0, 1, 6.00, 9.00,Sunday
135,85891.40593655762
213,1722.6129878865845
262,90000.0
2,1,12,25, 0, 1, 9.00,12.00,Sunday
135,0.0
213,0.0
262,0.0
2,1,12,25, 0, 1,12.00,15.00,Sunday
135,0.0
213,0.0
262,0.0
2,1,12,25, 0, 1,15.00,18.00,Sunday
135,0.0
213,0.0
262,0.0
2,1,12,25, 0, 1,18.00,21.00,Sunday
135,0.0
213,0.0
262,0.0
2,1,12,25, 0, 1,21.00,24.00,Sunday
135,0.0
213,0.0
262,0.0
2,1,12,25, 0, 1,24.00,27.00,Sunday
135,26146.981950359703
213,0.0
262,36717.65212522976
2,1,12,25, 0, 1,27.00,30.00,Sunday
135,0.0
213,0.0
262,0.0
2,1,12,25, 0, 1,30.00,33.00,Sunday
135,0.0
213,0.0
262,0.0
2,1,12,25, 0, 1,33.00,36.00,Sunday
135,39296.28557109704
213,0.0
262,55336.69483160768
2,1,12,25, 0, 1,36.00,39.00,Sunday
135,0.0
213,0.0
262,0.0
2,1,12,25, 0, 1,39.00,42.00,Sunday
135,0.0
213,0.0
262,0.0
2,1,12,25, 0, 1,42.00,45.00,Sunday
135,0.0
213,0.0
262,0.0
2,1,12,25, 0, 1,45.00,48.00,Sunday
135,6158.792480286322
213,0.0
262,8462.468703631806
2,1,12,25, 0, 1,48.00,51.00,Sunday
135,0.0
213,0.0
262,0.0
2,1,12,25, 0, 1,51.00,54.00,Sunday
135,0.0
213,0.0
262,0.0
2,1,12,25, 0, 1,54.00,57.00,Sunday
135,5664.693218038158
213,0.0
262,7774.483798623066
2,1,12,25, 0, 1,57.00,60.00,Sunday
135,0.0
213,0.0
262,0.0
2,1,12,25, 0, 2, 0.00, 3.00,Sunday
135,0.0
213,0.0
262,0.0
2,1,12,25, 0, 2, 3.00, 6.00,Sunday
135,0.0
213,0.0
262,0.0
2,1,12,25, 0, 2, 6.00, 9.00,Sunday
135,0.0
213,0.0
262,0.0
2,1,12,25, 0, 2, 9.00,12.00,Sunday
135,0.0
213,0.0
262,0.0
2,1,12,25, 0, 2,12.00,15.00,Sunday
135,0.0
213,0.0
262,0.0
2,1,12,25, 0, 2,15.00,18.00,Sunday
135,0.0
213,0.0
262,0.0
2,1,12,25, 0, 2,18.00,21.00,Sunday
135,0.0
213,0.0
262,0.0
2,1,12,25, 0, 2,21.00,24.00,Sunday
135,0.0
213,0.0
262,0.0
2,1,12,25, 0, 2,24.00,27.00,Sunday
135,0.0
213,0.0
262,0.0
2,1,12,25, 0, 2,27.00,30.00,Sunday
135,0.0
213,0.0
262,0.0
2,1,12,25, 0, 2,30.00,33.00,Sunday
135,0.0
213,0.0
262,0.0
2,1,12,25, 0, 2,33.00,36.00,Sunday
135,0.0
213,0.0
262,0.0
2,1,12,25, 0, 2,36.00,39.00,Sunday
135,0.0
213,0.0
262,0.0
2,1,12,25, 0, 2,39.00,42.00,Sunday
135,0.0
213,0.0
262,0.0
2,1,12,25, 0, 2,42.00,45.00,Sunday
135,0.0
213,0.0
262,0.0
2,1,12,25, 0, 2,45.00,48.00,Sunday
135,0.0
213,0.0
262,0.0
2,1,12,25, 0, 2,48.00,51.00,Sunday
135,0.0
213,0.0
262,0.0
2,1,12,25, 0, 2,51.00,54.00,Sunday
135,0.0
213,0.0
262,0.0
2,1,12,25, 0, 2,54.00,57.00,Sunday
135,0.0
213,0.0
262,0.0
2,1,12,25, 0, 2,57.00,60.00,Sunday
135,0.0
213,0.0
262,0.0
2,1,12,25, 0, 3, 0.00, 3.00,Sunday
135,0.0
213,0.0
262,0.0
2,1,12,25, 0, 3, 3.00, 6.00,Sunday
135,0.0
213,0.0
262,0.0
2,1,12,25, 0, 3, 6.00, 9.00,Sunday
135,0.0
213,0.0
262,0.0
2,1,12,25, 0, 3, 9.00,12.00,Sunday
135,0.0
213,0.0
262,0.0
2,1,12,25, 0, 3,12.00,15.00,Sunday
135,0.0
213,0.0
262,0.0
2,1,12,25, 0, 3,15.00,18.00,Sunday
135,0.0
213,0.0
262,0.0
2,1,12,25, 0, 3,18.00,21.00,Sunday
135,0.0
213,0.0
262,0.0
2,1,12,25, 0, 3,21.00,24.00,Sunday
135,0.0
213,0.0
262,0.0
2,1,12,25, 0, 3,24.00,27.00,Sunday
135,0.0
213,0.0
262,0.0
2,1,12,25, 0, 3,27.00,30.00,Sunday
135,0.0
213,0.0
262,0.0
2,1,12,25, 0, 3,30.00,33.00,Sunday
135,0.0
213,0.0
262,0.0
2,1,12,25, 0, 3,33.00,36.00,Sunday
135,0.0
213,0.0
262,0.0
2,1,12,25, 0, 3,36.00,39.00,Sunday
135,0.0
213,0.0
262,0.0
2,1,12,25, 0, 3,39.00,42.00,Sunday
135,0.0
213,0.0
262,0.0
2,1,12,25, 0, 3,42.00,45.00,Sunday
135,0.0
213,0.0
262,0.0
2,1,12,25, 0, 3,45.00,48.00,Sunday
135,0.0
213,0.0
262,0.0
2,1,12,25, 0, 3,48.00,51.00,Sunday
135,0.0
213,0.0
262,0.0
2,1,12,25, 0, 3,51.00,54.00,Sunday
135,0.0
213,0.0
262,0.0
2,1,12,25, 0, 3,54.00,57.00,Sunday
135,0.0
213,0.0
262,0.0
2,1,12,25, 0, 3,57.00,60.00,Sunday
135,0.0
213,0.0
262,0.0
2,1,12,25, 0, 4, 0.00, 3.00,Sunday
135,0.0
213,0.0
262,0.0
2,1,12,25, 0, 4, 3.00, 6.00,Sunday
135,0.0
213,0.0
262,0.0
2,1,12,25, 0, 4, 6.00, 9.00,Sunday
135,0.0
213,0.0
262,0.0
2,1,12,25, 0, 4, 9.00,12.00,Sunday
135,0.0
213,0.0
262,0.0
2,1,12,25, 0, 4,12.00,15.00,Sunday
135,0.0
213,0.0
262,0.0
2,1,12,25, 0, 4,15.00,18.00,Sunday
135,0.0
213,0.0
262,0.0
2,1,12,25, 0, 4,18.00,21.00,Sunday
135,0.0
213,0.0
262,0.0
2,1,12,25, 0, 4,21.00,24.00,Sunday
135,0.0
213,0.0
262,0.0
2,1,12,25, 0, 4,24.00,27.00,Sunday
135,0.0
213,0.0
262,0.0
2,1,12,25, 0, 4,27.00,30.00,Sunday
135,0.0
213,0.0
262,0.0
2,1,12,25, 0, 4,30.00,33.00,Sunday
135,0.0
213,0.0
262,0.0
2,1,12,25, 0, 4,33.00,36.00,Sunday
135,0.0
213,0.0
262,0.0
2,1,12,25, 0, 4,36.00,39.00,Sunday
135,0.0
213,0.0
262,0.0
2,1,12,25, 0, 4,39.00,42.00,Sunday
135,0.0
213,0.0
262,0.0
2,1,12,25, 0, 4,42.00,45.00,Sunday
135,0.0
213,0.0
262,0.0
2,1,12,25, 0, 4,45.00,48.00,Sunday
135,0.0
213,0.0
262,0.0
2,1,12,25, 0, 4,48.00,51.00,Sunday
135,0.0
213,0.0
262,0.0
2,1,12,25, 0, 4,51.00,54.00,Sunday
135,0.0
213,0.0
262,0.0
2,1,12,25, 0, 4,54.00,57.00,Sunday
135,0.0
213,0.0
262,0.0
2,1,12,25, 0, 4,57.00,60.00,Sunday
135,0.0
213,0.0
262,0.0
2,1,12,25, 0, 5, 0.00, 3.00,Sunday
135,0.0
213,0.0
262,0.0
2,1,12,25, 0, 5, 3.00, 6.00,Sunday
135,0.0
213,0.0
262,0.0
2,1,12,25, 0, 5, 6.00, 9.00,Sunday
135,0.0
213,0.0
262,0.0
2,1,12,25, 0, 5, 9.00,12.00,Sunday
135,0.0
213,0.0
262,0.0
2,1,12,25, 0, 5,12.00,15.00,Sunday
135,0.0
213,0.0
262,0.0
2,1,12,25, 0, 5,15.00,18.00,Sunday
135,0.0
213,0.0
262,0.0
2,1,12,25, 0, 5,18.00,21.00,Sunday
135,0.0
213,0.0
262,0.0
2,1,12,25, 0, 5,21.00,24.00,Sunday
135,0.0
213,0.0
262,0.0
2,1,12,25, 0, 5,24.00,27.00,Sunday
135,0.0
213,0.0
262,0.0
2,1,12,25, 0, 5,27.00,30.00,Sunday
135,0.0
213,0.0
262,0.0
2,1,12,25, 0, 5,30.00,33.00,Sunday
135,0.0
213,0.0
262,0.0
2,1,12,25, 0, 5,33.00,36.00,Sunday
135,0.0
213,0.0
262,0.0
2,1,12,25, 0, 5,36.00,39.00,Sunday
135,0.0
213,0.0
262,0.0
2,1,12,25, 0, 5,39.00,42.00,Sunday
135,0.0
213,0.0
262,0.0
2,1,12,25, 0, 5,42.00,45.00,Sunday
135,0.0
213,0.0
262,0.0
2,1,12,25, 0, 5,45.00,48.00,Sunday
135,0.0
213,0.0
262,0.0
2,1,12,25, 0, 5,48.00,51.00,Sunday
135,0.0
213,0.0
262,0.0
2,1,12,25, 0, 5,51.00,54.00,Sunday
135,0.0
213,0.0
262,0.0
2,1,12,25, 0, 5,54.00,57.00,Sunday
135,0.0
213,0.0
262,0.0
2,1,12,25, 0, 5,57.00,60.00,Sunday
135,0.0
213,0.0
262,0.0
2,1,12,25, 0, 6, 0.00, 3.00,Sunday
135,0.0
213,0.0
262,0.0
2,1,12,25, 0, 6, 3.00, 6.00,Sunday
135,0.0
213,0.0
262,0.0
2,1,12,25, 0, 6, 6.00, 9.00,Sunday
135,0.0
213,0.0
262,0.0
2,1,12,25, 0, 6, 9.00,12.00,Sunday
135,0.0
213,0.0
262,0.0
2,1,12,25, 0, 6,12.00,15.00,Sunday
135,0.0
213,0.0
262,0.0
2,1,12,25, 0, 6,15.00,18.00,Sunday
135,0.0
213,0.0
262,0.0
2,1,12,25, 0, 6,18.00,21.00,Sunday
135,0.0
213,0.0
262,0.0
2,1,12,25, 0, 6,21.00,24.00,Sunday
135,0.0
213,0.0
262,0.0
2,1,12,25, 0, 6,24.00,27.00,Sunday
135,0.0
213,0.0
262,0.0
2,1,12,25, 0, 6,27.00,30.00,Sunday
135,0.0
213,0.0
262,0.0
2,1,12,25, 0, 6,30.00,33.00,Sunday
135,0.0
213,0.0
262,0.0
2,1,12,25, 0, 6,33.00,36.00,Sunday
135,0.0
213,0.0
262,0.0
2,1,12,25, 0, 6,36.00,39.00,Sunday
135,0.0
213,0.0
262,0.0
2,1,12,25, 0, 6,39.00,42.00,Sunday
135,0.0
213,0.0
262,0.0
2,1,12,25, 0, 6,42.00,45.00,Sunday
135,0.0
213,0.0
262,0.0
2,1,12,25, 0, 6,45.00,48.00,Sunday
135,0.0
213,0.0
262,0.0
2,1,12,25, 0, 6,48.00,51.00,Sunday
135,0.0
213,0.0
262,0.0
2,1,12,25, 0, 6,51.00,54.00,Sunday
135,0.0
213,0.0
262,0.0
2,1,12,25, 0, 6,54.00,57.00,Sunday
135,0.0
213,0.0
262,0.0
2,1,12,25, 0, 6,57.00,60.00,Sunday
135,0.0
213,0.0
262,0.0
2,1,12,25, 0, 7, 0.00, 3.00,Sunday
135,0.0
213,0.0
262,0.0
2,1,12,25, 0, 7, 3.00, 6.00,Sunday
135,0.0
213,0.0
262,0.0
2,1,12,25, 0, 7, 6.00, 9.00,Sunday
135,0.0
213,0.0
262,0.0
2,1,12,25, 0, 7, 9.00,12.00,Sunday
135,0.0
213,0.0
262,0.0
2,1,12,25, 0, 7,12.00,15.00,Sunday
135,0.0
213,0.0
262,0.0
2,1,12,25, 0, 7,15.00,18.00,Sunday
135,0.0
213,0.0
262,0.0
2,1,12,25, 0, 7,18.00,21.00,Sunday
135,0.0
213,0.0
262,0.0
2,1,12,25, 0, 7,21.00,24.00,Sunday
135,0.0
213,0.0
262,0.0
2,1,12,25, 0, 7,24.00,27.00,Sunday
135,0.0
213,0.0
262,0.0
2,1,12,25, 0, 7,27.00,30.00,Sunday
135,0.0
213,0.0
262,0.0
2,1,12,25, 0, 7,30.00,33.00,Sunday
135,0.0
213,0.0
262,0.0
2,1,12,25, 0, 7,33.00,36.00,Sunday
135,0.0
213,0.0
262,0.0
2,1,12,25, 0, 7,36.00,39.00,Sunday
135,0.0
213,0.0
262,0.0
2,1,12,25, 0, 7,39.00,42.00,Sunday
135,0.0
213,0.0
262,0.0
2,1,12,25, 0, 7,42.00,45.00,Sunday
135,0.0
213,0.0
262,0.0
2,1,12,25, 0, 7,45.00,48.00,Sunday
135,0.0
213,0.0
262,0.0
2,1,12,25, 0, 7,48.00,51.00,Sunday
135,0.0
213,0.0
262,0.0
2,1,12,25, 0, 7,51.00,54.00,Sunday
135,0.0
213,0.0
262,0.0
2,1,12,25, 0, 7,54.00,57.00,Sunday
135,0.0
213,0.0
262,0.0
2,1,12,25, 0, 7,57.00,60.00,Sunday
135,0.0
213,0.0
262,0.0
2,1,12,25, 0, 8, 0.00, 3.00,Sunday
135,0.0
213,0.0
262,0.0
2,1,12,25, 0, 8, 3.00, 6.00,Sunday
135,0.0
213,0.0
262,0.0
2,1,12,25, 0, 8, 6.00, 9.00,Sunday
135,0.0
213,0.0
262,0.0
2,1,12,25, 0, 8, 9.00,12.00,Sunday
135,0.0
213,0.0
262,0.0
2,1,12,25, 0, 8,12.00,15.00,Sunday
135,0.0
213,0.0
262,0.0
2,1,12,25, 0, 8,15.00,18.00,Sunday
135,0.0
213,0.0
262,0.0
2,1,12,25, 0, 8,18.00,21.00,Sunday
135,0.0
213,0.0
262,0.0
2,1,12,25, 0, 8,21.00,24.00,Sunday
135,0.0
213,0.0
262,0.0
2,1,12,25, 0, 8,24.00,27.00,Sunday
135,0.0
213,0.0
262,0.0
2,1,12,25, 0, 8,27.00,30.00,Sunday
135,0.0
213,0.0
262,0.0
2,1,12,25, 0, 8,30.00,33.00,Sunday
135,0.0
213,0.0
262,0.0
2,1,12,25, 0, 8,33.00,36.00,Sunday
135,0.0
213,0.0
262,0.0
2,1,12,25, 0, 8,36.00,39.00,Sunday
135,0.0
213,0.0
262,0.0
2,1,12,25, 0, 8,39.00,42.00,Sunday
135,0.0
213,0.0
262,0.0
2,1,12,25, 0, 8,42.00,45.00,Sunday
135,0.0
213,0.0
262,0.0
2,1,12,25, 0, 8,45.00,48.00,Sunday
135,0.0
213,0.0
262,0.0
2,1,12,25, 0, 8,48.00,51.00,Sunday
135,0.0
213,0.0
262,0.0
2,1,12,25, 0, 8,51.00,54.00,Sunday
135,0.0
213,0.0
262,0.0
2,1,12,25, 0, 8,54.00,57.00,Sunday
135,0.0
213,0.0
262,0.0
2,1,12,25, 0, 8,57.00,60.00,Sunday
135,0.0
213,0.0
262,0.0
2,1,12,25, 0, 9, 0.00, 3.00,Sunday
135,0.0
213,0.0
262,0.0
2,1,12,25, 0, 9, 3.00, 6.00,Sunday
135,0.0
213,0.0
262,0.0
2,1,12,25, 0, 9, 6.00, 9.00,Sunday
135,0.0
213,0.0
262,0.0
2,1,12,25, 0, 9, 9.00,12.00,Sunday
135,0.0
213,0.0
262,0.0
2,1,12,25, 0, 9,12.00,15.00,Sunday
135,0.0
213,0.0
262,0.0
2,1,12,25, 0, 9,15.00,18.00,Sunday
135,0.0
213,0.0
262,0.0
2,1,12,25, 0, 9,18.00,21.00,Sunday
135,0.0
213,0.0
262,0.0
2,1,12,25, 0, 9,21.00,24.00,Sunday
135,0.0
213,0.0
262,0.0
2,1,12,25, 0, 9,24.00,27.00,Sunday
135,0.0
213,0.0
262,0.0
2,1,12,25, 0, 9,27.00,30.00,Sunday
135,0.0
213,0.0
262,0.0
2,1,12,25, 0, 9,30.00,33.00,Sunday
135,0.0
213,0.0
262,0.0
2,1,12,25, 0, 9,33.00,36.00,Sunday
135,0.0
213,0.0
262,0.0
2,1,12,25, 0, 9,36.00,39.00,Sunday
135,0.0
213,0.0
262,0.0
2,1,12,25, 0, 9,39.00,42.00,Sunday
135,0.0
213,0.0
262,0.0
2,1,12,25, 0, 9,42.00,45.00,Sunday
135,0.0
213,0.0
262,0.0
2,1,12,25, 0, 9,45.00,48.00,Sunday
135,0.0
213,0.0
262,0.0
2,1,12,25, 0, 9,48.00,51.00,Sunday
135,0.0
213,0.0
262,0.0
2,1,12,25, 0, 9,51.00,54.00,Sunday
135,0.0
213,0.0
262,0.0
2,1,12,25, 0, 9,54.00,57.00,Sunday
135,0.0
213,0.0
262,0.0
2,1,12,25, 0, 9,57.00,60.00,Sunday
135,0.0
213,0.0
262,0.0
2,1,12,25, 0,10, 0.00, 3.00,Sunday
135,0.0
213,0.0
262,0.0
2,1,12,25, 0,10, 3.00, 6.00,Sunday
135,0.0
213,0.0
262,0.0
2,1,12,25, 0,10, 6.00, 9.00,Sunday
135,0.0
213,0.0
262,0.0
2,1,12,25, 0,10, 9.00,12.00,Sunday
135,0.0
213,0.0
262,0.0
2,1,12,25, 0,10,12.00,15.00,Sunday
135,0.0
213,0.0
262,0.0
2,1,12,25, 0,10,15.00,18.00,Sunday
135,0.0
213,0.0
262,0.0
2,1,12,25, 0,10,18.00,21.00,Sunday
135,0.0
213,0.0
262,0.0
2,1,12,25, 0,10,21.00,24.00,Sunday
135,0.0
213,0.0
262,0.0
2,1,12,25, 0,10,24.00,27.00,Sunday
135,0.0
213,0.0
262,0.0
2,1,12,25, 0,10,27.00,30.00,Sunday
135,15862.467679538502
213,0.0
262,23389.727841369375
2,1,12,25, 0,10,30.00,33.00,Sunday
135,0.0
213,0.0
262,0.0
2,1,12,25, 0,10,33.00,36.00,Sunday
135,0.0
213,0.0
262,0.0
2,1,12,25, 0,10,36.00,39.00,Sunday
135,11839.497748913744
213,0.0
262,17298.22203180827
2,1,12,25, 0,10,39.00,42.00,Sunday
135,0.0
213,0.0
262,0.0
2,1,12,25, 0,10,42.00,45.00,Sunday
135,44354.92758996509
213,0.0
262,65282.4367976175
2,1,12,25, 0,10,45.00,48.00,Sunday
135,0.0
213,0.0
262,0.0
2,1,12,25, 0,10,48.00,51.00,Sunday
135,0.0
213,0.0
262,0.0
2,1,12,25, 0,10,51.00,54.00,Sunday
135,0.0
213,0.0
262,0.0
2,1,12,25, 0,10,54.00,57.00,Sunday
135,27782.73413002352
213,0.0
262,40188.43719897962
2,1,12,25, 0,10,57.00,60.00,Sunday
135,0.0
213,0.0
262,0.0
2,1,12,25, 0,11, 0.00, 3.00,Sunday
135,0.0
213,0.0
262,0.0
2,1,12,25, 0,11, 3.00, 6.00,Sunday
135,14032.481855911123
213,0.0
262,20043.244086919523
2,1,12,25, 0,11, 6.00, 9.00,Sunday
135,0.0
213,0.0
262,0.0
2,1,12,25, 0,11, 9.00,12.00,Sunday
135,52061.13406505956
213,0.0
262,59999.99999999999
2,1,12,25, 0,11,12.00,15.00,Sunday
135,0.0
213,0.0
262,0.0
2,1,12,25, 0,11,15.00,18.00,Sunday
135,0.0
213,0.0
262,0.0
2,1,12,25, 0,11,18.00,21.00,Sunday
135,57726.674864572684
213,6659.206563746895
262,59999.99999999998
2,1,12,25, 0,11,21.00,24.00,Sunday
135,0.0
213,0.0
262,0.0
2,1,12,25, 0,11,24.00,27.00,Sunday
135,85190.70376313811
213,10685.609546468953
262,90000.0
2,1,12,25, 0,11,27.00,30.00,Sunday
135,0.0
213,0.0
262,0.0
2,1,12,25, 0,11,30.00,33.00,Sunday
135,0.0
213,0.0
262,0.0
2,1,12,25, 0,11,33.00,36.00,Sunday
135,57038.923635993364
213,12497.239289248238
262,59999.99999999999
2,1,12,25, 0,11,36.00,39.00,Sunday
135,0.0
213,0.0
262,0.0
2,1,12,25, 0,11,39.00,42.00,Sunday
135,0.0
213,0.0
262,0.0
2,1,12,25, 0,11,42.00,45.00,Sunday
135,57990.84406067059
213,1103.8554353315112
262,60000.00000000001
2,1,12,25, 0,11,45.00,48.00,Sunday
135,0.0
213,0.0
262,0.0
2,1,12,25, 0,11,48.00,51.00,Sunday
135,0.0
213,0.0
262,0.0
2,1,12,25, 0,11,51.00,54.00,Sunday
135,56745.3355574832
213,14611.467177182909
262,59999.999999999985
2,1,12,25, 0,11,54.00,57.00,Sunday
135,0.0
213,0.0
262,0.0
2,1,12,25, 0,11,57.00,60.00,Sunday
135,61263.663893604826
213,0.0
262,88173.38128778494
2,1,12,25, 0,12, 0.00, 3.00,Sunday
135,0.0
213,0.0
262,0.0
2,1,12,25, 0,12, 3.00, 6.00,Sunday
135,85962.07205775248
213,12479.241362703071
262,90000.0
2,1,12,25, 0,12, 6.00, 9.00,Sunday
135,0.0
213,0.0
262,0.0
2,1,12,25, 0,12, 9.00,12.00,Sunday
135,51483.57581209273
213,0.0
262,73603.65941911416
2,1,12,25, 0,12,12.00,15.00,Sunday
135,83706.43032912319
213,24722.701506456215
262,90000.00000000001
2,1,12,25, 0,12,15.00,18.00,Sunday
135,0.0
213,0.0
262,0.0
2,1,12,25, 0,12,18.00,21.00,Sunday
135,56896.06348931998
213,16734.58479766871
262,60000.0
2,1,12,25, 0,12,21.00,24.00,Sunday
135,0.0
213,0.0
262,0.0
2,1,12,25, 0,12,24.00,27.00,Sunday
135,57940.89436563534
213,10548.080926933464
262,59999.999999999985
2,1,12,25, 0,12,27.00,30.00,Sunday
135,0.0
213,0.0
262,0.0
2,1,12,25, 0,12,30.00,33.00,Sunday
135,57658.87484220994
213,12149.828330000164
262,59999.999999999956
2,1,12,25, 0,12,33.00,36.00,Sunday
135,0.0
213,0.0
262,0.0
2,1,12,25, 0,12,36.00,39.00,Sunday
135,56961.74980405237
213,15866.328600504763
262,60000.00000000001
2,1,12,25, 0,12,39.00,42.00,Sunday
135,0.0
213,0.0
262,0.0
2,1,12,25, 0,12,42.00,45.00,Sunday
135,55842.019729395135
213,21593.637070370703
262,60000.00000000001
2,1,12,25, 0,12,45.00,48.00,Sunday
135,0.0
213,0.0
262,0.0
2,1,12,25, 0,12,48.00,51.00,Sunday
135,37247.508346879775
213,0.0
262,53853.30156153557
2,1,12,25, 0,12,51.00,54.00,Sunday
135,0.0
213,0.0
262,0.0
2,1,12,25, 0,12,54.00,57.00,Sunday
135,84723.41315726953
213,18207.783790231704
262,89999.99999999996
2,1,12,25, 0,12,57.00,60.00,Sunday
135,0.0
213,0.0
262,0.0
2,1,12,25, 0,13, 0.00, 3.00,Sunday
135,86987.4830929186
213,14485.967382732564
262,90000.00000000001
2,1,12,25, 0,13, 3.00, 6.00,Sunday
135,0.0
213,0.0
262,0.0
2,1,12,25, 0,13, 6.00, 9.00,Sunday
135,55079.75915821515
213,0.0
262,90000.00000000001
2,1,12,25, 0,13, 9.00,12.00,Sunday
135,79364.57611444213
213,71813.72597913221
262,89999.99999999991
2,1,12,25, 0,13,12.00,15.00,Sunday
135,56224.15025341767
213,29099.990913407924
262,59999.999999999985
2,1,12,25, 0,13,15.00,18.00,Sunday
135,80914.22487449613
213,45563.23447429544
262,89999.99999999999
2,1,12,25, 0,13,18.00,21.00,Sunday
135,56863.04104435109
213,20945.52934441683
262,59999.999999999985
2,1,12,25, 0,13,21.00,24.00,Sunday
135,81043.67690039241
213,42124.285310892425
262,90000.00000000003
2,1,12,25, 0,13,24.00,27.00,Sunday
135,56821.48568084628
213,19347.63704981838
262,59999.99999999999
2,1,12,25, 0,13,27.00,30.00,Sunday
135,80796.83776256992
213,39447.34528603382
262,90000.00000000001
2,1,12,25, 0,13,30.00,33.00,Sunday
135,56495.489038352054
213,19519.56482254243
262,60000.0
2,1,12,25, 0,13,33.00,36.00,Sunday
135,80196.71731895444
213,38321.5065340278
262,89999.99999999968
2,1,12,25, 0,13,36.00,39.00,Sunday
135,55931.3076597405
213,20623.958683763074
262,60000.0
2,1,12,25, 0,13,39.00,42.00,Sunday
135,56902.88695004426
213,14264.998232458194
262,59999.999999999985
2,1,12,25, 0,13,42.00,45.00,Sunday
135,57234.48864803767
213,11565.311793988041
262,59999.99999999999
2,1,12,25, 0,13,45.00,48.00,Sunday
135,57336.66111964965
213,10533.823833433595
262,60000.00000000001
2,1,12,25, 0,13,48.00,51.00,Sunday
135,57245.77021950534
213,10443.654102527384
262,60000.00000000001
2,1,12,25, 0,13,51.00,54.00,Sunday
135,57010.68557756627
213,10846.334566491643
262,59999.99999999992
2,1,12,25, 0,13,54.00,57.00,Sunday
135,56670.32443760715
213,11430.589916413508
262,59999.99999999994
2,1,12,25, 0,13,57.00,60.00,Sunday
135,56254.77476089479
213,11974.564621824535
262,60000.0
2,1,12,25, 0,14, 0.00, 3.00,Sunday
135,55791.53896399117
213,12335.668238792421
262,59999.99999999998
2,1,12,25, 0,14, 3.00, 6.00,Sunday
135,55315.04982698254
213,12646.896306808578
262,60000.0
2,1,12,25, 0,14, 6.00, 9.00,Sunday
135,54832.23641150409
213,12948.965520903095
262,60000.00000000002
2,1,12,25, 0,14, 9.00,12.00,Sunday
135,88092.08384650598
213,12751.76975094395
262,119999.99999999993
2,1,12,25, 0,14,12.00,15.00,Sunday
135,56244.872444976696
213,18052.627293570516
262,59999.999999999956
2,1,12,25, 0,14,15.00,18.00,Sunday
135,55135.190678149775
213,19628.617246382943
262,60000.000000000044
2,1,12,25, 0,14,18.00,21.00,Sunday
135,86133.70946907693
213,80.09300842793891
262,90000.0
2,1,12,25, 0,14,21.00,24.00,Sunday
135,0.0
213,0.0
262,0.0
2,1,12,25, 0,14,24.00,27.00,Sunday
135,81166.93252824892
213,38231.72924842802
262,89999.99999999994
2,1,12,25, 0,14,27.00,30.00,Sunday
135,85024.7654996241
213,9153.332649961627
262,90000.0
2,1,12,25, 0,14,30.00,33.00,Sunday
135,0.0
213,0.0
262,0.0
2,1,12,25, 0,14,33.00,36.00,Sunday
135,87611.76108007961
213,28029.876480426014
262,89999.99999999991
2,1,12,25, 0,14,36.00,39.00,Sunday
135,56688.94474145532
213,11271.256530510429
262,59999.99999999986
2,1,12,25, 0,14,39.00,42.00,Sunday
135,55797.91048535128
213,0.0
262,82801.50371576718
2,1,12,25, 0,14,42.00,45.00,Sunday
135,86408.9101821007
213,18132.937872587463
262,89999.99999999994
2,1,12,25, 0,14,45.00,48.00,Sunday
135,81351.60117570838
213,51822.86214171087
262,89999.99999999994
2,1,12,25, 0,14,48.00,51.00,Sunday
135,82930.81367636175
213,16926.49295211715
262,89999.99999999999
2,1,12,25, 0,14,51.00,54.00,Sunday
135,95022.22609435477
213,0.0
262,180000.0
2,1,12,25, 0,14,54.00,57.00,Sunday
135,84530.47850527515
213,30172.546754726154
262,89999.99999999997
2,1,12,25, 0,14,57.00,60.00,Sunday
135,84069.98471423495
213,0.0
262,90000.0
2,1,12,25, 0,15, 0.00, 3.00,Sunday
135,0.0
213,0.0
262,0.0
2,1,12,25, 0,15, 3.00, 6.00,Sunday
135,88945.24448039624
213,72175.61029087758
262,89999.99999999999
2,1,12,25, 0,15, 6.00, 9.00,Sunday
135,84649.90142928767
213,18326.16472240667
262,89999.99999999994
2,1,12,25, 0,15, 9.00,12.00,Sunday
135,51576.03225856634
213,0.0
262,75440.20312079792
2,1,12,25, 0,15,12.00,15.00,Sunday
135,85922.99890186131
213,44817.94657076882
262,90000.0
2,1,12,25, 0,15,15.00,18.00,Sunday
135,56408.70152916415
213,25703.572282497007
262,59999.99999999992
2,1,12,25, 0,15,18.00,21.00,Sunday
135,85967.19995264322
213,9958.420798248357
262,89999.99999999994
2,1,12,25, 0,15,21.00,24.00,Sunday
135,82524.97068372616
213,59097.65558836263
262,90000.00000000009
2,1,12,25, 0,15,24.00,27.00,Sunday
135,80922.0765686708
213,25257.05837307049
262,89999.99999999994
2,1,12,25, 0,15,27.00,30.00,Sunday
135,57587.9580559759
213,0.0
262,93548.63145135436
2,1,12,25, 0,15,30.00,33.00,Sunday
135,85360.53973997831
213,14009.08429706734
262,89999.99999999999
2,1,12,25, 0,15,33.00,36.00,Sunday
135,82418.16214394428
213,68325.71538726863
262,89999.9999999995
2,1,12,25, 0,15,36.00,39.00,Sunday
135,80017.63217492816
213,28831.272338488245
262,89999.99999999967
2,1,12,25, 0,15,39.00,42.00,Sunday
135,58464.14448675946
213,1789.2042039700527
262,60000.0
2,1,12,25, 0,15,42.00,45.00,Sunday
135,51046.480085677445
213,0.0
262,90000.00000000001
2,1,12,25, 0,15,45.00,48.00,Sunday
135,85939.72817475081
213,48799.193253947466
262,89999.99999999996
2,1,12,25, 0,15,48.00,51.00,Sunday
135,85926.53758511772
213,26559.930473312757
262,89999.99999999999
2,1,12,25, 0,15,51.00,54.00,Sunday
135,87833.86081167149
213,12534.364083445349
262,89999.9999999999
2,1,12,25, 0,15,54.00,57.00,Sunday
135,110297.82107684771
213,0.0
262,180000.0
2,1,12,25, 0,15,57.00,60.00,Sunday
135,85941.07962303598
213,37393.70995697352
262,89999.9999999998
2,1,12,25, 0,16, 0.00, 3.00,Sunday
135,85523.33175580575
213,26180.607095723615
262,90000.0
2,1,12,25, 0,16, 3.00, 6.00,Sunday
135,86479.05446332855
213,17694.529221654375
262,90000.00000000001
2,1,12,25, 0,16, 6.00, 9.00,Sunday
135,87137.88842199155
213,14065.20434797506
262,90000.0
2,1,12,25, 0,16, 9.00,12.00,Sunday
135,87592.2861875032
213,12125.53648407002
262,90000.0
2,1,12,25, 0,16,12.00,15.00,Sunday
135,87921.25165213317
213,10982.313109177361
262,89999.99999999994
2,1,12,25, 0,16,15.00,18.00,Sunday
135,88151.29637002666
213,5879.492272258635
262,90000.0
2,1,12,25, 0,16,18.00,21.00,Sunday
135,135970.93234642333
213,0.0
262,180000.00000000003
2,1,12,25, 0,16,21.00,24.00,Sunday
135,87895.24135100495
213,20404.65605235451
262,90000.00000000001
2,1,12,25, 0,16,24.00,27.00,Sunday
135,168411.48908524428
213,72471.52536320405
262,180000.00000000003
2,1,12,25, 0,16,27.00,30.00,Sunday
135,88305.53274653152
213,10383.888550654183
262,90000.0
2,1,12,25, 0,16,30.00,33.00,Sunday
135,88090.88164572221
213,12456.949972929922
262,89999.99999999999
2,1,12,25, 0,16,33.00,36.00,Sunday
135,101580.45217101523
213,0.0
262,180000.0
2,1,12,25, 0,16,36.00,39.00,Sunday
135,85472.96628951709
213,55985.02820583484
262,90000.0
2,1,12,25, 0,16,39.00,42.00,Sunday
135,84805.4017684818
213,37979.88119171454
262,89999.9999999999
2,1,12,25, 0,16,42.00,45.00,Sunday
135,85649.51436637518
213,26033.90049706976
262,90000.00000000001
2,1,12,25, 0,16,45.00,48.00,Sunday
135,86206.53614734791
213,21263.791315674032
262,89999.99999999987
2,1,12,25, 0,16,48.00,51.00,Sunday
135,86581.49209209818
213,18926.386623326354
262,89999.99999999996
2,1,12,25, 0,16,51.00,54.00,Sunday
135,86854.43506586166
213,17682.439975679572
262,90000.00000000001
2,1,12,25, 0,16,54.00,57.00,Sunday
135,87048.38142115688
213,17111.04419081405
262,90000.00000000001
2,1,12,25, 0,16,57.00,60.00,Sunday
135,87179.98264902222
213,16969.42042708994
262,90000.0
2,1,12,25, 0,17, 0.00, 3.00,Sunday
135,87277.06723036713
213,16942.686589974855
262,89999.99999999997
2,1,12,25, 0,17, 3.00, 6.00,Sunday
135,87362.41046385333
213,16887.377307942985
262,90000.0
2,1,12,25, 0,17, 6.00, 9.00,Sunday
135,87439.76499911794
213,16808.00004020532
262,90000.0
2,1,12,25, 0,17, 9.00,12.00,Sunday
135,87510.53594071191
213,16711.77284531502
262,89999.99999999999
2,1,12,25, 0,17,12.00,15.00,Sunday
135,87576.17341953098
213,16600.751759992647
262,89999.99999999999
2,1,12,25, 0,17,15.00,18.00,Sunday
135,87637.8715815295
213,16475.62316635835
262,89999.99999999994
2,1,12,25, 0,17,18.00,21.00,Sunday
135,87696.46190763649
213,16338.51859812259
262,90000.0
2,1,12,25, 0,17,21.00,24.00,Sunday
135,87752.56532140209
213,16190.726769643754
262,89999.99999999999
2,1,12,25, 0,17,24.00,27.00,Sunday
135,87806.08835349939
213,16039.117299070256
262,90000.0
2,1,12,25, 0,17,27.00,30.00,Sunday
135,87857.1028240074
213,15885.42142625417
262,90000.0
2,1,12,25, 0,17,30.00,33.00,Sunday
135,87903.4522878527
213,15756.918111324443
262,89999.99999999996
2,1,12,25, 0,17,33.00,36.00,Sunday
135,87943.11681021162
213,15662.766120066983
262,89999.99999999997
2,1,12,25, 0,17,36.00,39.00,Sunday
135,87976.09595571921
213,15599.600511437218
262,89999.99999999996
2,1,12,25, 0,17,39.00,42.00,Sunday
135,88002.76157163962
213,15564.265439196271
262,90000.0
2,1,12,25, 0,17,42.00,45.00,Sunday
135,88023.35364778273
213,15555.01781819522
262,89999.99999999999
2,1,12,25, 0,17,45.00,48.00,Sunday
135,88036.1088055612
213,15592.90331856271
262,90000.0
2,1,12,25, 0,17,48.00,51.00,Sunday
135,88038.30448392048
213,15696.544589419349
262,89999.99999999999
2,1,12,25, 0,17,51.00,54.00,Sunday
135,88029.5232641136
213,15859.983857739684
262,89999.99999999993
2,1,12,25, 0,17,54.00,57.00,Sunday
135,88010.75316482525
213,16069.143676665637
262,89999.99999999993
2,1,12,25, 0,17,57.00,60.00,Sunday
135,87983.11417822466
213,16312.124349638541
262,89999.99999999999
2,1,12,25, 0,18, 0.00, 3.00,Sunday
135,87980.2153076186
213,16205.442556929163
262,90000.0
2,1,12,25, 0,18, 3.00, 6.00,Sunday
135,88023.97327384842
213,15750.5773814462
262,89999.99999999999
2,1,12,25, 0,18, 6.00, 9.00,Sunday
135,88105.66166609692
213,14751.675362907024
262,89999.99999999994
2,1,12,25, 0,18, 9.00,12.00,Sunday
135,88216.02626947037
213,6801.7589870966385
262,89999.99999999999
2,1,12,25, 0,18,12.00,15.00,Sunday
135,87012.00730920144
213,0.0
262,89999.99999999997
2,1,12,25, 0,18,15.00,18.00,Sunday
135,88177.53386372751
213,12444.904628932974
262,90000.00000000001
2,1,12,25, 0,18,18.00,21.00,Sunday
135,85023.60587130375
213,0.0
262,90000.0
2,1,12,25, 0,18,21.00,24.00,Sunday
135,87827.79378641603
213,23961.59358849708
262,89999.99999999999
2,1,12,25, 0,18,24.00,27.00,Sunday
135,88191.72805609334
213,8496.56586098952
262,89999.99999999997
2,1,12,25, 0,18,27.00,30.00,Sunday
135,129862.02754720453
213,0.0
262,179999.99999999997
2,1,12,25, 0,18,30.00,33.00,Sunday
135,87656.8130892529
213,34808.968231256156
262,90000.00000000001
2,1,12,25, 0,18,33.00,36.00,Sunday
135,87515.76599816834
213,26411.850591713777
262,89999.99999999999
2,1,12,25, 0,18,36.00,39.00,Sunday
135,111712.5371723816
213,0.0
262,179999.99999999997
2,1,12,25, 0,18,39.00,42.00,Sunday
135,86266.55471057916
213,57567.023591642224
262,89999.99999999999
2,1,12,25, 0,18,42.00,45.00,Sunday
135,86309.79103765167
213,36511.6228423504
262,89999.99999999999
2,1,12,25, 0,18,45.00,48.00,Sunday
135,87475.87653561527
213,21325.53833001993
262,89999.99999999994
2,1,12,25, 0,18,48.00,51.00,Sunday
135,78517.61289650892
213,0.0
262,89999.99999999999
2,1,12,25, 0,18,51.00,54.00,Sunday
135,86667.08911991469
213,34519.86334287114
262,90000.0
2,1,12,25, 0,18,54.00,57.00,Sunday
135,87591.04488906408
213,20880.292595449748
262,89999.99999999999
2,1,12,25, 0,18,57.00,60.00,Sunday
135,120653.94205169936
213,0.0
262,180000.0
2,1,12,25, 0,19, 0.00, 3.00,Sunday
135,86956.4972134105
213,39411.134084084675
262,90000.0
2,1,12,25, 0,19, 3.00, 6.00,Sunday
135,87415.36518871429
213,23347.28410797731
262,89999.99999999999
2,1,12,25, 0,19, 6.00, 9.00,Sunday
135,121957.60077701522
213,0.0
262,179999.99999999997
2,1,12,25, 0,19, 9.00,12.00,Sunday
135,87668.89643485376
213,30256.113695483218
262,90000.0
2,1,12,25, 0,19,12.00,15.00,Sunday
135,67339.9069042733
213,0.0
262,89999.99999999999
2,1,12,25, 0,19,15.00,18.00,Sunday
135,84689.20801102593
213,68842.5507199087
262,90000.0
2,1,12,25, 0,19,18.00,21.00,Sunday
135,86487.45130834954
213,30576.325779421728
262,89999.99999999987
2,1,12,25, 0,19,21.00,24.00,Sunday
135,109575.40131299202
213,0.0
262,180000.0
2,1,12,25, 0,19,24.00,27.00,Sunday
135,86130.13326391634
213,48102.16456483074
262,90000.0
2,1,12,25, 0,19,27.00,30.00,Sunday
135,87643.97805734011
213,18346.46130654532
262,90000.0
2,1,12,25, 0,19,30.00,33.00,Sunday
135,29317.450123687202
213,0.0
262,40391.76093645421
2,1,12,25, 0,19,33.00,36.00,Sunday
135,55383.208095831615
213,0.0
262,90000.0
2,1,12,25, 0,19,36.00,39.00,Sunday
135,55988.40218186639
213,65217.0023405705
262,60000.000000000015
2,1,12,25, 0,19,39.00,42.00,Sunday
135,85280.67218309049
213,26413.40065838885
262,90000.00000000001
2,1,12,25, 0,19,42.00,45.00,Sunday
135,82250.65949171284
213,106377.72305774623
262,90000.00000000009
2,1,12,25, 0,19,45.00,48.00,Sunday
135,81708.97295832004
213,38896.41292782995
262,90000.00000000001
2,1,12,25, 0,19,48.00,51.00,Sunday
135,55471.072201010174
213,39056.72691195925
262,60000.00000000001
2,1,12,25, 0,19,51.00,54.00,Sunday
135,84101.50863199265
213,17981.34830633285
262,90000.00000000001
2,1,12,25, 0,19,54.00,57.00,Sunday
135,0.0
213,0.0
262,0.0
2,1,12,25, 0,19,57.00,60.00,Sunday
135,85862.72979530803
213,14163.115984229848
262,90000.0
2,1,12,25, 0,20, 0.00, 3.00,Sunday
135,0.0
213,0.0
262,0.0
2,1,12,25, 0,20, 3.00, 6.00,Sunday
135,42200.990407302765
213,0.0
262,60232.24785988233
2,1,12,25, 0,20, 6.00, 9.00,Sunday
135,84604.2564088239
213,80917.56143033513
262,90000.00000000001
2,1,12,25, 0,20, 9.00,12.00,Sunday
135,55973.61903500983
213,37477.51096578668
262,59999.99999999995
2,1,12,25, 0,20,12.00,15.00,Sunday
135,86523.75504827706
213,0.0
262,89999.99999999999
2,1,12,25, 0,20,15.00,18.00,Sunday
135,0.0
213,0.0
262,0.0
2,1,12,25, 0,20,18.00,21.00,Sunday
135,80632.21725989065
213,95382.86996796024
262,89999.99999999994
2,1,12,25, 0,20,21.00,24.00,Sunday
135,83299.9694595391
213,25961.483968021224
262,89999.99999999999
2,1,12,25, 0,20,24.00,27.00,Sunday
135,0.0
213,0.0
262,0.0