Program Version,EnergyPlus, Version 22.1.0-ed759b17ee, YMD=2022.06.14 14:13
1,5,Environment Title[],Latitude[deg],Longitude[deg],Time Zone[],Elevation[m]
2,8,Day of Simulation[],Month[],Day of Month[],DST Indicator[1=yes 0=no],Hour[],StartMinute[],EndMinute[],DayType
3,5,Cumulative Day of Simulation[],Month[],Day of Month[],DST Indicator[1=yes 0=no],DayType  ! When Daily Meters Requested
4,2,Cumulative Days of Simulation[],Month[]  ! When Monthly Meters Requested
5,1,Cumulative Days of Simulation[] ! When Run Period Meters Requested
6,1,Calendar Year of Simulation[] ! When Annual Meters Requested
213,1,Heating:DistrictHeating [J] !TimeStep
262,1,Cooling:DistrictCooling [J] !TimeStep
135,1,Cooling:EnergyTransfer [J] !TimeStep
End of Data Dictionary
1,DDMM, -32.90, -68.87,  -3.00, 676.00
2,1,12,25, 0, 1, 0.00, 3.00,Sunday
135,0.0
213,0.0
262,0.0
2,1,12,25, 0, 1, 3.00, 6.00,Sunday
135,0.0
213,0.0
262,0.0
2,1,12,25, 0, 1, 6.00, 9.00,Sunday
135,0.0
213,0.0
262,0.0
2,1,12,25, 0, 1, 9.00,12.00,Sunday
135,0.0
213,0.0
262,0.0
2,1,12,25, 0, 1,12.00,15.00,Sunday
135,0.0
213,0.0
262,0.0
2,1,12,25, 0, 1,15.00,18.00,Sunday
135,0.0
213,0.0
262,0.0
2,1,12,25, 0, 1,18.00,21.00,Sunday
135,0.0
213,0.0
262,0.0
2,1,12,25, 0, 1,21.00,24.00,Sunday
135,0.0
213,0.0
262,0.0
2,1,12,25, 0, 1,24.00,27.00,Sunday
135,0.0
213,0.0
262,0.0
2,1,12,25, 0, 1,27.00,30.00,Sunday
135,0.0
213,0.0
262,0.0
2,1,12,25, 0, 1,30.00,33.00,Sunday
135,0.0
213,0.0
262,0.0
2,1,12,25, 0, 1,33.00,36.00,Sunday
135,0.0
213,0.0
262,0.0
2,1,12,25, 0, 1,36.00,39.00,Sunday
135,0.0
213,0.0
262,0.0
2,1,12,25, 0, 1,39.00,42.00,Sunday
135,0.0
213,0.0
262,0.0
2,1,12,25, 0, 1,42.00,45.00,Sunday
135,0.0
213,0.0
262,0.0
2,1,12,25, 0, 1,45.00,48.00,Sunday
135,0.0
213,0.0
262,0.0
2,1,12,25, 0, 1,48.00,51.00,Sunday
135,0.0
213,0.0
262,0.0
2,1,12,25, 0, 1,51.00,54.00,Sunday
135,0.0
213,0.0
262,0.0
2,1,12,25, 0, 1,54.00,57.00,Sunday
135,0.0
213,0.0
262,0.0
2,1,12,25, 0, 1,57.00,60.00,Sunday
135,0.0
213,0.0
262,0.0
2,1,12,25, 0, 2, 0.00, 3.00,Sunday
135,0.0
213,0.0
262,0.0
2,1,12,25, 0, 2, 3.00, 6.00,Sunday
135,0.0
213,0.0
262,0.0
2,1,12,25, 0, 2, 6.00, 9.00,Sunday
135,0.0
213,0.0
262,0.0
2,1,12,25, 0, 2, 9.00,12.00,Sunday
135,0.0
213,0.0
262,0.0
2,1,12,25, 0, 2,12.00,15.00,Sunday
135,0.0
213,0.0
262,0.0
2,1,12,25, 0, 2,15.00,18.00,Sunday
135,0.0
213,0.0
262,0.0
2,1,12,25, 0, 2,18.00,21.00,Sunday
135,0.0
213,0.0
262,0.0
2,1,12,25, 0, 2,21.00,24.00,Sunday
135,0.0
213,0.0
262,0.0
2,1,12,25, 0, 2,24.00,27.00,Sunday
135,0.0
213,0.0
262,0.0
2,1,12,25, 0, 2,27.00,30.00,Sunday
135,0.0
213,0.0
262,0.0
2,1,12,25, 0, 2,30.00,33.00,Sunday
135,0.0
213,0.0
262,0.0
2,1,12,25, 0, 2,33.00,36.00,Sunday
135,0.0
213,0.0
262,0.0
2,1,12,25, 0, 2,36.00,39.00,Sunday
135,0.0
213,0.0
262,0.0
2,1,12,25, 0, 2,39.00,42.00,Sunday
135,0.0
213,0.0
262,0.0
2,1,12,25, 0, 2,42.00,45.00,Sunday
135,0.0
213,0.0
262,0.0
2,1,12,25, 0, 2,45.00,48.00,Sunday
135,0.0
213,0.0
262,0.0
2,1,12,25, 0, 2,48.00,51.00,Sunday
135,0.0
213,0.0
262,0.0
2,1,12,25, 0, 2,51.00,54.00,Sunday
135,0.0
213,0.0
262,0.0
2,1,12,25, 0, 2,54.00,57.00,Sunday
135,0.0
213,0.0
262,0.0
2,1,12,25, 0, 2,57.00,60.00,Sunday
135,0.0
213,0.0
262,0.0
2,1,12,25, 0, 3, 0.00, 3.00,Sunday
135,0.0
213,0.0
262,0.0
2,1,12,25, 0, 3, 3.00, 6.00,Sunday
135,0.0
213,0.0
262,0.0
2,1,12,25, 0, 3, 6.00, 9.00,Sunday
135,0.0
213,0.0
262,0.0
2,1,12,25, 0, 3, 9.00,12.00,Sunday
135,0.0
213,0.0
262,0.0
2,1,12,25, 0, 3,12.00,15.00,Sunday
135,0.0
213,0.0
262,0.0
2,1,12,25, 0, 3,15.00,18.00,Sunday
135,0.0
213,0.0
262,0.0
2,1,12,25, 0, 3,18.00,21.00,Sunday
135,0.0
213,0.0
262,0.0
2,1,12,25, 0, 3,21.00,24.00,Sunday
135,0.0
213,0.0
262,0.0
2,1,12,25, 0, 3,24.00,27.00,Sunday
135,0.0
213,0.0
262,0.0
2,1,12,25, 0, 3,27.00,30.00,Sunday
135,0.0
213,0.0
262,0.0
2,1,12,25, 0, 3,30.00,33.00,Sunday
135,0.0
213,0.0
262,0.0
2,1,12,25, 0, 3,33.00,36.00,Sunday
135,0.0
213,0.0
262,0.0
2,1,12,25, 0, 3,36.00,39.00,Sunday
135,0.0
213,0.0
262,0.0
2,1,12,25, 0, 3,39.00,42.00,Sunday
135,0.0
213,0.0
262,0.0
2,1,12,25, 0, 3,42.00,45.00,Sunday
135,0.0
213,0.0
262,0.0
2,1,12,25, 0, 3,45.00,48.00,Sunday
135,0.0
213,0.0
262,0.0
2,1,12,25, 0, 3,48.00,51.00,Sunday
135,0.0
213,0.0
262,0.0
2,1,12,25, 0, 3,51.00,54.00,Sunday
135,0.0
213,0.0
262,0.0
2,1,12,25, 0, 3,54.00,57.00,Sunday
135,0.0
213,0.0
262,0.0
2,1,12,25, 0, 3,57.00,60.00,Sunday
135,0.0
213,0.0
262,0.0
2,1,12,25, 0, 4, 0.00, 3.00,Sunday
135,0.0
213,0.0
262,0.0
2,1,12,25, 0, 4, 3.00, 6.00,Sunday
135,0.0
213,0.0
262,0.0
2,1,12,25, 0, 4, 6.00, 9.00,Sunday
135,0.0
213,0.0
262,0.0
2,1,12,25, 0, 4, 9.00,12.00,Sunday
135,0.0
213,0.0
262,0.0
2,1,12,25, 0, 4,12.00,15.00,Sunday
135,0.0
213,0.0
262,0.0
2,1,12,25, 0, 4,15.00,18.00,Sunday
135,0.0
213,0.0
262,0.0
2,1,12,25, 0, 4,18.00,21.00,Sunday
135,0.0
213,0.0
262,0.0
2,1,12,25, 0, 4,21.00,24.00,Sunday
135,0.0
213,0.0
262,0.0
2,1,12,25, 0, 4,24.00,27.00,Sunday
135,0.0
213,0.0
262,0.0
2,1,12,25, 0, 4,27.00,30.00,Sunday
135,0.0
213,0.0
262,0.0
2,1,12,25, 0, 4,30.00,33.00,Sunday
135,0.0
213,0.0
262,0.0
2,1,12,25, 0, 4,33.00,36.00,Sunday
135,0.0
213,0.0
262,0.0
2,1,12,25, 0, 4,36.00,39.00,Sunday
135,0.0
213,0.0
262,0.0
2,1,12,25, 0, 4,39.00,42.00,Sunday
135,0.0
213,0.0
262,0.0
2,1,12,25, 0, 4,42.00,45.00,Sunday
135,0.0
213,0.0
262,0.0
2,1,12,25, 0, 4,45.00,48.00,Sunday
135,0.0
213,0.0
262,0.0
2,1,12,25, 0, 4,48.00,51.00,Sunday
135,0.0
213,0.0
262,0.0
2,1,12,25, 0, 4,51.00,54.00,Sunday
135,0.0
213,0.0
262,0.0
2,1,12,25, 0, 4,54.00,57.00,Sunday
135,0.0
213,0.0
262,0.0
2,1,12,25, 0, 4,57.00,60.00,Sunday
135,0.0
213,0.0
262,0.0
2,1,12,25, 0, 5, 0.00, 3.00,Sunday
135,0.0
213,0.0
262,0.0
2,1,12,25, 0, 5, 3.00, 6.00,Sunday
135,0.0
213,0.0
262,0.0
2,1,12,25, 0, 5, 6.00, 9.00,Sunday
135,0.0
213,0.0
262,0.0
2,1,12,25, 0, 5, 9.00,12.00,Sunday
135,0.0
213,0.0
262,0.0
2,1,12,25, 0, 5,12.00,15.00,Sunday
135,0.0
213,0.0
262,0.0
2,1,12,25, 0, 5,15.00,18.00,Sunday
135,0.0
213,0.0
262,0.0
2,1,12,25, 0, 5,18.00,21.00,Sunday
135,0.0
213,0.0
262,0.0
2,1,12,25, 0, 5,21.00,24.00,Sunday
135,0.0
213,0.0
262,0.0
2,1,12,25, 0, 5,24.00,27.00,Sunday
135,0.0
213,0.0
262,0.0
2,1,12,25, 0, 5,27.00,30.00,Sunday
135,0.0
213,0.0
262,0.0
2,1,12,25, 0, 5,30.00,33.00,Sunday
135,0.0
213,0.0
262,0.0
2,1,12,25, 0, 5,33.00,36.00,Sunday
135,0.0
213,0.0
262,0.0
2,1,12,25, 0, 5,36.00,39.00,Sunday
135,0.0
213,0.0
262,0.0
2,1,12,25, 0, 5,39.00,42.00,Sunday
135,0.0
213,0.0
262,0.0
2,1,12,25, 0, 5,42.00,45.00,Sunday
135,0.0
213,0.0
262,0.0
2,1,12,25, 0, 5,45.00,48.00,Sunday
135,0.0
213,0.0
262,0.0
2,1,12,25, 0, 5,48.00,51.00,Sunday
135,0.0
213,0.0
262,0.0
2,1,12,25, 0, 5,51.00,54.00,Sunday
135,0.0
213,0.0
262,0.0
2,1,12,25, 0, 5,54.00,57.00,Sunday
135,0.0
213,0.0
262,0.0
2,1,12,25, 0, 5,57.00,60.00,Sunday
135,0.0
213,0.0
262,0.0
2,1,12,25, 0, 6, 0.00, 3.00,Sunday
135,0.0
213,0.0
262,0.0
2,1,12,25, 0, 6, 3.00, 6.00,Sunday
135,0.0
213,0.0
262,0.0
2,1,12,25, 0, 6, 6.00, 9.00,Sunday
135,0.0
213,0.0
262,0.0
2,1,12,25, 0, 6, 9.00,12.00,Sunday
135,0.0
213,0.0
262,0.0
2,1,12,25, 0, 6,12.00,15.00,Sunday
135,0.0
213,0.0
262,0.0
2,1,12,25, 0, 6,15.00,18.00,Sunday
135,0.0
213,0.0
262,0.0
2,1,12,25, 0, 6,18.00,21.00,Sunday
135,0.0
213,0.0
262,0.0
2,1,12,25, 0, 6,21.00,24.00,Sunday
135,0.0
213,0.0
262,0.0
2,1,12,25, 0, 6,24.00,27.00,Sunday
135,0.0
213,0.0
262,0.0
2,1,12,25, 0, 6,27.00,30.00,Sunday
135,0.0
213,0.0
262,0.0
2,1,12,25, 0, 6,30.00,33.00,Sunday
135,0.0
213,0.0
262,0.0
2,1,12,25, 0, 6,33.00,36.00,Sunday
135,0.0
213,0.0
262,0.0
2,1,12,25, 0, 6,36.00,39.00,Sunday
135,0.0
213,0.0
262,0.0
2,1,12,25, 0, 6,39.00,42.00,Sunday
135,0.0
213,0.0
262,0.0
2,1,12,25, 0, 6,42.00,45.00,Sunday
135,0.0
213,0.0
262,0.0
2,1,12,25, 0, 6,45.00,48.00,Sunday
135,0.0
213,0.0
262,0.0
2,1,12,25, 0, 6,48.00,51.00,Sunday
135,0.0
213,0.0
262,0.0
2,1,12,25, 0, 6,51.00,54.00,Sunday
135,0.0
213,0.0
262,0.0
2,1,12,25, 0, 6,54.00,57.00,Sunday
135,0.0
213,0.0
262,0.0
2,1,12,25, 0, 6,57.00,60.00,Sunday
135,0.0
213,0.0
262,0.0
2,1,12,25, 0, 7, 0.00, 3.00,Sunday
135,0.0
213,0.0
262,0.0
2,1,12,25, 0, 7, 3.00, 6.00,Sunday
135,0.0
213,0.0
262,0.0
2,1,12,25, 0, 7, 6.00, 9.00,Sunday
135,0.0
213,0.0
262,0.0
2,1,12,25, 0, 7, 9.00,12.00,Sunday
135,0.0
213,0.0
262,0.0
2,1,12,25, 0, 7,12.00,15.00,Sunday
135,0.0
213,0.0
262,0.0
2,1,12,25, 0, 7,15.00,18.00,Sunday
135,0.0
213,0.0
262,0.0
2,1,12,25, 0, 7,18.00,21.00,Sunday
135,0.0
213,0.0
262,0.0
2,1,12,25, 0, 7,21.00,24.00,Sunday
135,0.0
213,0.0
262,0.0
2,1,12,25, 0, 7,24.00,27.00,Sunday
135,0.0
213,0.0
262,0.0
2,1,12,25, 0, 7,27.00,30.00,Sunday
135,0.0
213,0.0
262,0.0
2,1,12,25, 0, 7,30.00,33.00,Sunday
135,0.0
213,0.0
262,0.0
2,1,12,25, 0, 7,33.00,36.00,Sunday
135,0.0
213,0.0
262,0.0
2,1,12,25, 0, 7,36.00,39.00,Sunday
135,0.0
213,0.0
262,0.0
2,1,12,25, 0, 7,39.00,42.00,Sunday
135,0.0
213,0.0
262,0.0
2,1,12,25, 0, 7,42.00,45.00,Sunday
135,0.0
213,0.0
262,0.0
2,1,12,25, 0, 7,45.00,48.00,Sunday
135,0.0
213,0.0
262,0.0
2,1,12,25, 0, 7,48.00,51.00,Sunday
135,0.0
213,0.0
262,0.0
2,1,12,25, 0, 7,51.00,54.00,Sunday
135,0.0
213,0.0
262,0.0
2,1,12,25, 0, 7,54.00,57.00,Sunday
135,0.0
213,0.0
262,0.0
2,1,12,25, 0, 7,57.00,60.00,Sunday
135,0.0
213,0.0
262,0.0
2,1,12,25, 0, 8, 0.00, 3.00,Sunday
135,0.0
213,0.0
262,0.0
2,1,12,25, 0, 8, 3.00, 6.00,Sunday
135,0.0
213,0.0
262,0.0
2,1,12,25, 0, 8, 6.00, 9.00,Sunday
135,0.0
213,0.0
262,0.0
2,1,12,25, 0, 8, 9.00,12.00,Sunday
135,0.0
213,0.0
262,0.0
2,1,12,25, 0, 8,12.00,15.00,Sunday
135,0.0
213,0.0
262,0.0
2,1,12,25, 0, 8,15.00,18.00,Sunday
135,0.0
213,0.0
262,0.0
2,1,12,25, 0, 8,18.00,21.00,Sunday
135,0.0
213,0.0
262,0.0
2,1,12,25, 0, 8,21.00,24.00,Sunday
135,0.0
213,0.0
262,0.0
2,1,12,25, 0, 8,24.00,27.00,Sunday
135,0.0
213,0.0
262,0.0
2,1,12,25, 0, 8,27.00,30.00,Sunday
135,0.0
213,0.0
262,0.0
2,1,12,25, 0, 8,30.00,33.00,Sunday
135,0.0
213,0.0
262,0.0
2,1,12,25, 0, 8,33.00,36.00,Sunday
135,0.0
213,0.0
262,0.0
2,1,12,25, 0, 8,36.00,39.00,Sunday
135,0.0
213,0.0
262,0.0
2,1,12,25, 0, 8,39.00,42.00,Sunday
135,0.0
213,0.0
262,0.0
2,1,12,25, 0, 8,42.00,45.00,Sunday
135,0.0
213,0.0
262,0.0
2,1,12,25, 0, 8,45.00,48.00,Sunday
135,0.0
213,0.0
262,0.0
2,1,12,25, 0, 8,48.00,51.00,Sunday
135,0.0
213,0.0
262,0.0
2,1,12,25, 0, 8,51.00,54.00,Sunday
135,0.0
213,0.0
262,0.0
2,1,12,25, 0, 8,54.00,57.00,Sunday
135,0.0
213,0.0
262,0.0
2,1,12,25, 0, 8,57.00,60.00,Sunday
135,0.0
213,0.0
262,0.0
2,1,12,25, 0, 9, 0.00, 3.00,Sunday
135,0.0
213,0.0
262,0.0
2,1,12,25, 0, 9, 3.00, 6.00,Sunday
135,0.0
213,0.0
262,0.0
2,1,12,25, 0, 9, 6.00, 9.00,Sunday
135,0.0
213,0.0
262,0.0
2,1,12,25, 0, 9, 9.00,12.00,Sunday
135,0.0
213,0.0
262,0.0
2,1,12,25, 0, 9,12.00,15.00,Sunday
135,0.0
213,0.0
262,0.0
2,1,12,25, 0, 9,15.00,18.00,Sunday
135,0.0
213,0.0
262,0.0
2,1,12,25, 0, 9,18.00,21.00,Sunday
135,0.0
213,0.0
262,0.0
2,1,12,25, 0, 9,21.00,24.00,Sunday
135,0.0
213,0.0
262,0.0
2,1,12,25, 0, 9,24.00,27.00,Sunday
135,0.0
213,0.0
262,0.0
2,1,12,25, 0, 9,27.00,30.00,Sunday
135,0.0
213,0.0
262,0.0
2,1,12,25, 0, 9,30.00,33.00,Sunday
135,0.0
213,0.0
262,0.0
2,1,12,25, 0, 9,33.00,36.00,Sunday
135,0.0
213,0.0
262,0.0
2,1,12,25, 0, 9,36.00,39.00,Sunday
135,0.0
213,0.0
262,0.0
2,1,12,25, 0, 9,39.00,42.00,Sunday
135,0.0
213,0.0
262,0.0
2,1,12,25, 0, 9,42.00,45.00,Sunday
135,0.0
213,0.0
262,0.0
2,1,12,25, 0, 9,45.00,48.00,Sunday
135,0.0
213,0.0
262,0.0
2,1,12,25, 0, 9,48.00,51.00,Sunday
135,0.0
213,0.0
262,0.0
2,1,12,25, 0, 9,51.00,54.00,Sunday
135,0.0
213,0.0
262,0.0
2,1,12,25, 0, 9,54.00,57.00,Sunday
135,0.0
213,0.0
262,0.0
2,1,12,25, 0, 9,57.00,60.00,Sunday
135,0.0
213,0.0
262,0.0
2,1,12,25, 0,10, 0.00, 3.00,Sunday
135,0.0
213,0.0
262,0.0
2,1,12,25, 0,10, 3.00, 6.00,Sunday
135,0.0
213,0.0
262,0.0
2,1,12,25, 0,10, 6.00, 9.00,Sunday
135,0.0
213,0.0
262,0.0
2,1,12,25, 0,10, 9.00,12.00,Sunday
135,0.0
213,0.0
262,0.0
2,1,12,25, 0,10,12.00,15.00,Sunday
135,0.0
213,0.0
262,0.0
2,1,12,25, 0,10,15.00,18.00,Sunday
135,0.0
213,0.0
262,0.0
2,1,12,25, 0,10,18.00,21.00,Sunday
135,0.0
213,0.0
262,0.0
2,1,12,25, 0,10,21.00,24.00,Sunday
135,0.0
213,0.0
262,0.0
2,1,12,25, 0,10,24.00,27.00,Sunday
135,0.0
213,0.0
262,0.0
2,1,12,25, 0,10,27.00,30.00,Sunday
135,0.0
213,0.0
262,0.0
2,1,12,25, 0,10,30.00,33.00,Sunday
135,0.0
213,0.0
262,0.0
2,1,12,25, 0,10,33.00,36.00,Sunday
135,0.0
213,0.0
262,0.0
2,1,12,25, 0,10,36.00,39.00,Sunday
135,0.0
213,0.0
262,0.0
2,1,12,25, 0,10,39.00,42.00,Sunday
135,0.0
213,0.0
262,0.0
2,1,12,25, 0,10,42.00,45.00,Sunday
135,0.0
213,0.0
262,0.0
2,1,12,25, 0,10,45.00,48.00,Sunday
135,0.0
213,0.0
262,0.0
2,1,12,25, 0,10,48.00,51.00,Sunday
135,0.0
213,0.0
262,0.0
2,1,12,25, 0,10,51.00,54.00,Sunday
135,0.0
213,0.0
262,0.0
2,1,12,25, 0,10,54.00,57.00,Sunday
135,0.0
213,0.0
262,0.0
2,1,12,25, 0,10,57.00,60.00,Sunday
135,0.0
213,0.0
262,0.0
2,1,12,25, 0,11, 0.00, 3.00,Sunday
135,0.0
213,0.0
262,0.0
2,1,12,25, 0,11, 3.00, 6.00,Sunday
135,0.0
213,0.0
262,0.0
2,1,12,25, 0,11, 6.00, 9.00,Sunday
135,0.0
213,0.0
262,0.0
2,1,12,25, 0,11, 9.00,12.00,Sunday
135,0.0
213,0.0
262,0.0
2,1,12,25, 0,11,12.00,15.00,Sunday
135,0.0
213,0.0
262,0.0
2,1,12,25, 0,11,15.00,18.00,Sunday
135,0.0
213,0.0
262,0.0
2,1,12,25, 0,11,18.00,21.00,Sunday
135,0.0
213,0.0
262,0.0
2,1,12,25, 0,11,21.00,24.00,Sunday
135,0.0
213,0.0
262,0.0
2,1,12,25, 0,11,24.00,27.00,Sunday
135,0.0
213,0.0
262,0.0
2,1,12,25, 0,11,27.00,30.00,Sunday
135,0.0
213,0.0
262,0.0
2,1,12,25, 0,11,30.00,33.00,Sunday
135,0.0
213,0.0
262,0.0
2,1,12,25, 0,11,33.00,36.00,Sunday
135,0.0
213,0.0
262,0.0
2,1,12,25, 0,11,36.00,39.00,Sunday
135,0.0
213,0.0
262,0.0
2,1,12,25, 0,11,39.00,42.00,Sunday
135,0.0
213,0.0
262,0.0
2,1,12,25, 0,11,42.00,45.00,Sunday
135,0.0
213,0.0
262,0.0
2,1,12,25, 0,11,45.00,48.00,Sunday
135,0.0
213,0.0
262,0.0
2,1,12,25, 0,11,48.00,51.00,Sunday
135,0.0
213,0.0
262,0.0
2,1,12,25, 0,11,51.00,54.00,Sunday
135,0.0
213,0.0
262,0.0
2,1,12,25, 0,11,54.00,57.00,Sunday
135,0.0
213,0.0
262,0.0
2,1,12,25, 0,11,57.00,60.00,Sunday
135,0.0
213,0.0
262,0.0
2,1,12,25, 0,12, 0.00, 3.00,Sunday
135,0.0
213,0.0
262,0.0
2,1,12,25, 0,12, 3.00, 6.00,Sunday
135,0.0
213,0.0
262,0.0
2,1,12,25, 0,12, 6.00, 9.00,Sunday
135,0.0
213,0.0
262,0.0
2,1,12,25, 0,12, 9.00,12.00,Sunday
135,0.0
213,0.0
262,0.0
2,1,12,25, 0,12,12.00,15.00,Sunday
135,0.0
213,0.0
262,0.0
2,1,12,25, 0,12,15.00,18.00,Sunday
135,0.0
213,0.0
262,0.0
2,1,12,25, 0,12,18.00,21.00,Sunday
135,0.0
213,0.0
262,0.0
2,1,12,25, 0,12,21.00,24.00,Sunday
135,0.0
213,0.0
262,0.0
2,1,12,25, 0,12,24.00,27.00,Sunday
135,0.0
213,0.0
262,0.0
2,1,12,25, 0,12,27.00,30.00,Sunday
135,0.0
213,0.0
262,0.0
2,1,12,25, 0,12,30.00,33.00,Sunday
135,0.0
213,0.0
262,0.0
2,1,12,25, 0,12,33.00,36.00,Sunday
135,0.0
213,0.0
262,0.0
2,1,12,25, 0,12,36.00,39.00,Sunday
135,0.0
213,0.0
262,0.0
2,1,12,25, 0,12,39.00,42.00,Sunday
135,0.0
213,0.0
262,0.0
2,1,12,25, 0,12,42.00,45.00,Sunday
135,0.0
213,0.0
262,0.0
2,1,12,25, 0,12,45.00,48.00,Sunday
135,0.0
213,0.0
262,0.0
2,1,12,25, 0,12,48.00,51.00,Sunday
135,0.0
213,0.0
262,0.0
2,1,12,25, 0,12,51.00,54.00,Sunday
135,0.0
213,0.0
262,0.0
2,1,12,25, 0,12,54.00,57.00,Sunday
135,0.0
213,0.0
262,0.0
2,1,12,25, 0,12,57.00,60.00,Sunday
135,0.0
213,0.0
262,0.0
2,1,12,25, 0,13, 0.00, 3.00,Sunday
135,0.0
213,0.0
262,0.0
2,1,12,25, 0,13, 3.00, 6.00,Sunday
135,0.0
213,0.0
262,0.0
2,1,12,25, 0,13, 6.00, 9.00,Sunday
135,0.0
213,0.0
262,0.0
2,1,12,25, 0,13, 9.00,12.00,Sunday
135,0.0
213,0.0
262,0.0
2,1,12,25, 0,13,12.00,15.00,Sunday
135,0.0
213,0.0
262,0.0
2,1,12,25, 0,13,15.00,18.00,Sunday
135,0.0
213,0.0
262,0.0
2,1,12,25, 0,13,18.00,21.00,Sunday
135,0.0
213,0.0
262,0.0
2,1,12,25, 0,13,21.00,24.00,Sunday
135,0.0
213,0.0
262,0.0
2,1,12,25, 0,13,24.00,27.00,Sunday
135,0.0
213,0.0
262,0.0
2,1,12,25, 0,13,27.00,30.00,Sunday
135,0.0
213,0.0
262,0.0
2,1,12,25, 0,13,30.00,33.00,Sunday
135,0.0
213,0.0
262,0.0
2,1,12,25, 0,13,33.00,36.00,Sunday
135,0.0
213,0.0
262,0.0
2,1,12,25, 0,13,36.00,39.00,Sunday
135,0.0
213,0.0
262,0.0
2,1,12,25, 0,13,39.00,42.00,Sunday
135,0.0
213,0.0
262,0.0
2,1,12,25, 0,13,42.00,45.00,Sunday
135,0.0
213,0.0
262,0.0
2,1,12,25, 0,13,45.00,48.00,Sunday
135,0.0
213,0.0
262,0.0
2,1,12,25, 0,13,48.00,51.00,Sunday
135,0.0
213,0.0
262,0.0
2,1,12,25, 0,13,51.00,54.00,Sunday
135,0.0
213,0.0
262,0.0
2,1,12,25, 0,13,54.00,57.00,Sunday
135,0.0
213,0.0
262,0.0
2,1,12,25, 0,13,57.00,60.00,Sunday
135,0.0
213,0.0
262,0.0
2,1,12,25, 0,14, 0.00, 3.00,Sunday
135,0.0
213,0.0
262,0.0
2,1,12,25, 0,14, 3.00, 6.00,Sunday
135,0.0
213,0.0
262,0.0
2,1,12,25, 0,14, 6.00, 9.00,Sunday
135,0.0
213,0.0
262,0.0
2,1,12,25, 0,14, 9.00,12.00,Sunday
135,0.0
213,0.0
262,0.0
2,1,12,25, 0,14,12.00,15.00,Sunday
135,0.0
213,0.0
262,0.0
2,1,12,25, 0,14,15.00,18.00,Sunday
135,0.0
213,0.0
262,0.0
2,1,12,25, 0,14,18.00,21.00,Sunday
135,0.0
213,0.0
262,0.0
2,1,12,25, 0,14,21.00,24.00,Sunday
135,0.0
213,0.0
262,0.0
2,1,12,25, 0,14,24.00,27.00,Sunday
135,0.0
213,0.0
262,0.0
2,1,12,25, 0,14,27.00,30.00,Sunday
135,0.0
213,0.0
262,0.0
2,1,12,25, 0,14,30.00,33.00,Sunday
135,0.0
213,0.0
262,0.0
2,1,12,25, 0,14,33.00,36.00,Sunday
135,0.0
213,0.0
262,0.0
2,1,12,25, 0,14,36.00,39.00,Sunday
135,0.0
213,0.0
262,0.0
2,1,12,25, 0,14,39.00,42.00,Sunday
135,0.0
213,0.0
262,0.0
2,1,12,25, 0,14,42.00,45.00,Sunday
135,0.0
213,0.0
262,0.0
2,1,12,25, 0,14,45.00,48.00,Sunday
135,0.0
213,0.0
262,0.0
2,1,12,25, 0,14,48.00,51.00,Sunday
135,0.0
213,0.0
262,0.0
2,1,12,25, 0,14,51.00,54.00,Sunday
135,0.0
213,0.0
262,0.0
2,1,12,25, 0,14,54.00,57.00,Sunday
135,0.0
213,0.0
262,0.0
2,1,12,25, 0,14,57.00,60.00,Sunday
135,0.0
213,0.0
262,0.0
2,1,12,25, 0,15, 0.00, 3.00,Sunday
135,0.0
213,0.0
262,0.0
2,1,12,25, 0,15, 3.00, 6.00,Sunday
135,0.0
213,0.0
262,0.0
2,1,12,25, 0,15, 6.00, 9.00,Sunday
135,0.0
213,0.0
262,0.0
2,1,12,25, 0,15, 9.00,12.00,Sunday
135,0.0
213,0.0
262,0.0
2,1,12,25, 0,15,12.00,15.00,Sunday
135,0.0
213,0.0
262,0.0
2,1,12,25, 0,15,15.00,18.00,Sunday
135,0.0
213,0.0
262,0.0
2,1,12,25, 0,15,18.00,21.00,Sunday
135,0.0
213,0.0
262,0.0
2,1,12,25, 0,15,21.00,24.00,Sunday
135,0.0
213,0.0
262,0.0
2,1,12,25, 0,15,24.00,27.00,Sunday
135,0.0
213,0.0
262,0.0
2,1,12,25, 0,15,27.00,30.00,Sunday
135,0.0
213,0.0
262,0.0
2,1,12,25, 0,15,30.00,33.00,Sunday
135,0.0
213,0.0
262,0.0
2,1,12,25, 0,15,33.00,36.00,Sunday
135,0.0
213,0.0
262,0.0
2,1,12,25, 0,15,36.00,39.00,Sunday
135,0.0
213,0.0
262,0.0
2,1,12,25, 0,15,39.00,42.00,Sunday
135,0.0
213,0.0
262,0.0
2,1,12,25, 0,15,42.00,45.00,Sunday
135,0.0
213,0.0
262,0.0
2,1,12,25, 0,15,45.00,48.00,Sunday
135,0.0
213,0.0
262,0.0
2,1,12,25, 0,15,48.00,51.00,Sunday
135,0.0
213,0.0
262,0.0
2,1,12,25, 0,15,51.00,54.00,Sunday
135,0.0
213,0.0
262,0.0
2,1,12,25, 0,15,54.00,57.00,Sunday
135,0.0
213,0.0
262,0.0
2,1,12,25, 0,15,57.00,60.00,Sunday
135,0.0
213,0.0
262,0.0
2,1,12,25, 0,16, 0.00, 3.00,Sunday
135,0.0
213,0.0
262,0.0
2,1,12,25, 0,16, 3.00, 6.00,Sunday
135,0.0
213,0.0
262,0.0
2,1,12,25, 0,16, 6.00, 9.00,Sunday
135,0.0
213,0.0
262,0.0
2,1,12,25, 0,16, 9.00,12.00,Sunday
135,0.0
213,0.0
262,0.0
2,1,12,25, 0,16,12.00,15.00,Sunday
135,0.0
213,0.0
262,0.0
2,1,12,25, 0,16,15.00,18.00,Sunday
135,0.0
213,0.0
262,0.0
2,1,12,25, 0,16,18.00,21.00,Sunday
135,0.0
213,0.0
262,0.0
2,1,12,25, 0,16,21.00,24.00,Sunday
135,0.0
213,0.0
262,0.0
2,1,12,25, 0,16,24.00,27.00,Sunday
135,0.0
213,0.0
262,0.0
2,1,12,25, 0,16,27.00,30.00,Sunday
135,0.0
213,0.0
262,0.0
2,1,12,25, 0,16,30.00,33.00,Sunday
135,0.0
213,0.0
262,0.0
2,1,12,25, 0,16,33.00,36.00,Sunday
135,0.0
213,0.0
262,0.0
2,1,12,25, 0,16,36.00,39.00,Sunday
135,0.0
213,0.0
262,0.0
2,1,12,25, 0,16,39.00,42.00,Sunday
135,0.0
213,0.0
262,0.0
2,1,12,25, 0,16,42.00,45.00,Sunday
135,0.0
213,0.0
262,0.0
2,1,12,25, 0,16,45.00,48.00,Sunday
135,0.0
213,0.0
262,0.0
2,1,12,25, 0,16,48.00,51.00,Sunday
135,0.0
213,0.0
262,0.0
2,1,12,25, 0,16,51.00,54.00,Sunday
135,0.0
213,0.0
262,0.0
2,1,12,25, 0,16,54.00,57.00,Sunday
135,0.0
213,0.0
262,0.0
2,1,12,25, 0,16,57.00,60.00,Sunday
135,0.0
213,0.0
262,0.0
2,1,12,25, 0,17, 0.00, 3.00,Sunday
135,0.0
213,0.0
262,0.0
2,1,12,25, 0,17, 3.00, 6.00,Sunday
135,0.0
213,0.0
262,0.0
2,1,12,25, 0,17, 6.00, 9.00,Sunday
135,0.0
213,0.0
262,0.0
2,1,12,25, 0,17, 9.00,12.00,Sunday
135,0.0
213,0.0
262,0.0
2,1,12,25, 0,17,12.00,15.00,Sunday
135,0.0
213,0.0
262,0.0
2,1,12,25, 0,17,15.00,18.00,Sunday
135,0.0
213,0.0
262,0.0
2,1,12,25, 0,17,18.00,21.00,Sunday
135,0.0
213,0.0
262,0.0
2,1,12,25, 0,17,21.00,24.00,Sunday
135,0.0
213,0.0
262,0.0
2,1,12,25, 0,17,24.00,27.00,Sunday
135,0.0
213,0.0
262,0.0
2,1,12,25, 0,17,27.00,30.00,Sunday
135,0.0
213,0.0
262,0.0
2,1,12,25, 0,17,30.00,33.00,Sunday
135,0.0
213,0.0
262,0.0
2,1,12,25, 0,17,33.00,36.00,Sunday
135,0.0
213,0.0
262,0.0
2,1,12,25, 0,17,36.00,39.00,Sunday
135,0.0
213,0.0
262,0.0
2,1,12,25, 0,17,39.00,42.00,Sunday
135,0.0
213,0.0
262,0.0
2,1,12,25, 0,17,42.00,45.00,Sunday
135,0.0
213,0.0
262,0.0
2,1,12,25, 0,17,45.00,48.00,Sunday
135,0.0
213,0.0
262,0.0
2,1,12,25, 0,17,48.00,51.00,Sunday
135,0.0
213,0.0
262,0.0
2,1,12,25, 0,17,51.00,54.00,Sunday
135,0.0
213,0.0
262,0.0
2,1,12,25, 0,17,54.00,57.00,Sunday
135,0.0
213,0.0
262,0.0
2,1,12,25, 0,17,57.00,60.00,Sunday
135,0.0
213,0.0
262,0.0
2,1,12,25, 0,18, 0.00, 3.00,Sunday
135,0.0
213,0.0
262,0.0
2,1,12,25, 0,18, 3.00, 6.00,Sunday
135,0.0
213,0.0
262,0.0
2,1,12,25, 0,18, 6.00, 9.00,Sunday
135,0.0
213,0.0
262,0.0
2,1,12,25, 0,18, 9.00,12.00,Sunday
135,0.0
213,0.0
262,0.0
2,1,12,25, 0,18,12.00,15.00,Sunday
135,0.0
213,0.0
262,0.0
2,1,12,25, 0,18,15.00,18.00,Sunday
135,0.0
213,0.0
262,0.0
2,1,12,25, 0,18,18.00,21.00,Sunday
135,0.0
213,0.0
262,0.0
2,1,12,25, 0,18,21.00,24.00,Sunday
135,0.0
213,0.0
262,0.0
2,1,12,25, 0,18,24.00,27.00,Sunday
135,0.0
213,0.0
262,0.0
2,1,12,25, 0,18,27.00,30.00,Sunday
135,0.0
213,0.0
262,0.0
2,1,12,25, 0,18,30.00,33.00,Sunday
135,0.0
213,0.0
262,0.0
2,1,12,25, 0,18,33.00,36.00,Sunday
135,0.0
213,0.0
262,0.0
2,1,12,25, 0,18,36.00,39.00,Sunday
135,0.0
213,0.0
262,0.0
2,1,12,25, 0,18,39.00,42.00,Sunday
135,0.0
213,0.0
262,0.0
2,1,12,25, 0,18,42.00,45.00,Sunday
135,0.0
213,0.0
262,0.0
2,1,12,25, 0,18,45.00,48.00,Sunday
135,0.0
213,0.0
262,0.0
2,1,12,25, 0,18,48.00,51.00,Sunday
135,0.0
213,0.0
262,0.0
2,1,12,25, 0,18,51.00,54.00,Sunday
135,0.0
213,0.0
262,0.0
2,1,12,25, 0,18,54.00,57.00,Sunday
135,0.0
213,0.0
262,0.0
2,1,12,25, 0,18,57.00,60.00,Sunday
135,0.0
213,0.0
262,0.0
2,1,12,25, 0,19, 0.00, 3.00,Sunday
135,0.0
213,0.0
262,0.0
2,1,12,25, 0,19, 3.00, 6.00,Sunday
135,0.0
213,0.0
262,0.0
2,1,12,25, 0,19, 6.00, 9.00,Sunday
135,0.0
213,0.0
262,0.0
2,1,12,25, 0,19, 9.00,12.00,Sunday
135,0.0
213,0.0
262,0.0
2,1,12,25, 0,19,12.00,15.00,Sunday
135,0.0
213,0.0
262,0.0
2,1,12,25, 0,19,15.00,18.00,Sunday
135,0.0
213,0.0
262,0.0
2,1,12,25, 0,19,18.00,21.00,Sunday
135,0.0
213,0.0
262,0.0
2,1,12,25, 0,19,21.00,24.00,Sunday
135,0.0
213,0.0
262,0.0
2,1,12,25, 0,19,24.00,27.00,Sunday
135,0.0
213,0.0
262,0.0
2,1,12,25, 0,19,27.00,30.00,Sunday
135,0.0
213,0.0
262,0.0
2,1,12,25, 0,19,30.00,33.00,Sunday
135,0.0
213,0.0
262,0.0
2,1,12,25, 0,19,33.00,36.00,Sunday
135,0.0
213,0.0
262,0.0
2,1,12,25, 0,19,36.00,39.00,Sunday
135,0.0
213,0.0
262,0.0
2,1,12,25, 0,19,39.00,42.00,Sunday
135,0.0
213,0.0
262,0.0
2,1,12,25, 0,19,42.00,45.00,Sunday
135,0.0
213,0.0
262,0.0
2,1,12,25, 0,19,45.00,48.00,Sunday
135,0.0
213,0.0
262,0.0
2,1,12,25, 0,19,48.00,51.00,Sunday
135,0.0
213,0.0
262,0.0
2,1,12,25, 0,19,51.00,54.00,Sunday
135,0.0
213,0.0
262,0.0
2,1,12,25, 0,19,54.00,57.00,Sunday
135,0.0
213,0.0
262,0.0
2,1,12,25, 0,19,57.00,60.00,Sunday
135,0.0
213,0.0
262,0.0
2,1,12,25, 0,20, 0.00, 3.00,Sunday
135,0.0
213,0.0
262,0.0
2,1,12,25, 0,20, 3.00, 6.00,Sunday
135,0.0
213,0.0
262,0.0
2,1,12,25, 0,20, 6.00, 9.00,Sunday
135,0.0
213,0.0
262,0.0
2,1,12,25, 0,20, 9.00,12.00,Sunday
135,0.0
213,0.0
262,0.0
2,1,12,25, 0,20,12.00,15.00,Sunday
135,0.0
213,0.0
262,0.0
2,1,12,25, 0,20,15.00,18.00,Sunday
135,0.0
213,0.0
262,0.0
2,1,12,25, 0,20,18.00,21.00,Sunday
135,0.0
213,0.0
262,0.0
2,1,12,25, 0,20,21.00,24.00,Sunday
135,0.0
213,0.0
262,0.0
2,1,12,25, 0,20,24.00,27.00,Sunday
135,0.0
213,0.0
262,0.0
2,1,12,25, 0,20,27.00,30.00,Sunday
135,0.0
213,0.0
262,0.0
2,1,12,25, 0,20,30.00,33.00,Sunday
135,0.0
213,0.0
262,0.0
2,1,12,25, 0,20,33.00,36.00,Sunday
135,0.0
213,0.0
262,0.0
2,1,12,25, 0,20,36.00,39.00,Sunday
135,0.0
213,0.0
262,0.0
2,1,12,25, 0,20,39.00,42.00,Sunday
135,0.0
213,0.0
262,0.0
2,1,12,25, 0,20,42.00,45.00,Sunday
135,0.0
213,0.0
262,0.0
2,1,12,25, 0,20,45.00,48.00,Sunday
135,0.0
213,0.0
262,0.0
2,1,12,25, 0,20,48.00,51.00,Sunday
135,0.0
213,0.0
262,0.0
2,1,12,25, 0,20,51.00,54.00,Sunday
135,0.0
213,0.0
262,0.0
2,1,12,25, 0,20,54.00,57.00,Sunday
135,0.0
213,0.0
262,0.0
2,1,12,25, 0,20,57.00,60.00,Sunday
135,0.0
213,0.0
262,0.0
2,1,12,25, 0,21, 0.00, 3.00,Sunday
135,0.0
213,0.0
262,0.0
2,1,12,25, 0,21, 3.00, 6.00,Sunday
135,0.0
213,0.0
262,0.0
2,1,12,25, 0,21, 6.00, 9.00,Sunday
135,0.0
213,0.0
262,0.0
2,1,12,25, 0,21, 9.00,12.00,Sunday
135,0.0
213,0.0
262,0.0
2,1,12,25, 0,21,12.00,15.00,Sunday
135,0.0
213,0.0
262,0.0
2,1,12,25, 0,21,15.00,18.00,Sunday
135,0.0
213,0.0
262,0.0
2,1,12,25, 0,21,18.00,21.00,Sunday
135,0.0
213,0.0
262,0.0
2,1,12,25, 0,21,21.00,24.00,Sunday
135,0.0
213,0.0
262,0.0
2,1,12,25, 0,21,24.00,27.00,Sunday
135,0.0
213,0.0
262,0.0
2,1,12,25, 0,21,27.00,30.00,Sunday
135,0.0
213,0.0
262,0.0
2,1,12,25, 0,21,30.00,33.00,Sunday
135,0.0
213,0.0
262,0.0
2,1,12,25, 0,21,33.00,36.00,Sunday
135,0.0
213,0.0
262,0.0
2,1,12,25, 0,21,36.00,39.00,Sunday
135,0.0
213,0.0
262,0.0
2,1,12,25, 0,21,39.00,42.00,Sunday
135,0.0
213,0.0
262,0.0
2,1,12,25, 0,21,42.00,45.00,Sunday
135,0.0
213,0.0
262,0.0
2,1,12,25, 0,21,45.00,48.00,Sunday
135,0.0
213,0.0
262,0.0
2,1,12,25, 0,21,48.00,51.00,Sunday
135,0.0
213,0.0
262,0.0
2,1,12,25, 0,21,51.00,54.00,Sunday
135,0.0
213,0.0
262,0.0
2,1,12,25, 0,21,54.00,57.00,Sunday
135,0.0
213,0.0
262,0.0
2,1,12,25, 0,21,57.00,60.00,Sunday
135,0.0
213,0.0
262,0.0
2,1,12,25, 0,22, 0.00, 3.00,Sunday
135,0.0
213,0.0
262,0.0
2,1,12,25, 0,22, 3.00, 6.00,Sunday
135,0.0
213,0.0
262,0.0
2,1,12,25, 0,22, 6.00, 9.00,Sunday
135,0.0
213,0.0
262,0.0
2,1,12,25, 0,22, 9.00,12.00,Sunday
135,0.0
213,0.0
262,0.0
2,1,12,25, 0,22,12.00,15.00,Sunday
135,0.0
213,0.0
262,0.0
2,1,12,25, 0,22,15.00,18.00,Sunday
135,0.0
213,0.0
262,0.0
2,1,12,25, 0,22,18.00,21.00,Sunday
135,0.0
213,0.0
262,0.0
2,1,12,25, 0,22,21.00,24.00,Sunday
135,0.0
213,0.0
262,0.0
2,1,12,25, 0,22,24.00,27.00,Sunday
135,0.0
213,0.0
262,0.0
2,1,12,25, 0,22,27.00,30.00,Sunday
135,0.0
213,0.0
262,0.0
2,1,12,25, 0,22,30.00,33.00,Sunday
135,0.0
213,0.0
262,0.0
2,1,12,25, 0,22,33.00,36.00,Sunday
135,0.0
213,0.0
262,0.0
2,1,12,25, 0,22,36.00,39.00,Sunday
135,0.0
213,0.0
262,0.0
2,1,12,25, 0,22,39.00,42.00,Sunday
135,0.0
213,0.0
262,0.0
2,1,12,25, 0,22,42.00,45.00,Sunday
135,0.0
213,0.0
262,0.0
2,1,12,25, 0,22,45.00,48.00,Sunday
135,0.0
213,0.0
262,0.0
2,1,12,25, 0,22,48.00,51.00,Sunday
135,0.0
213,0.0
262,0.0
2,1,12,25, 0,22,51.00,54.00,Sunday
135,0.0
213,0.0
262,0.0
2,1,12,25, 0,22,54.00,57.00,Sunday
135,0.0
213,0.0
262,0.0
2,1,12,25, 0,22,57.00,60.00,Sunday
135,0.0
213,0.0
262,0.0
2,1,12,25, 0,23, 0.00, 3.00,Sunday
135,0.0
213,0.0
262,0.0
2,1,12,25, 0,23, 3.00, 6.00,Sunday
135,0.0
213,0.0
262,0.0
2,1,12,25, 0,23, 6.00, 9.00,Sunday
135,0.0
213,0.0
262,0.0
2,1,12,25, 0,23, 9.00,12.00,Sunday
135,0.0
213,0.0
262,0.0
2,1,12,25, 0,23,12.00,15.00,Sunday
135,0.0
213,0.0
262,0.0
2,1,12,25, 0,23,15.00,18.00,Sunday
135,0.0
213,0.0
262,0.0
2,1,12,25, 0,23,18.00,21.00,Sunday
135,0.0
213,0.0
262,0.0
2,1,12,25, 0,23,21.00,24.00,Sunday
135,0.0
213,0.0
262,0.0
2,1,12,25, 0,23,24.00,27.00,Sunday
135,0.0
213,0.0
262,0.0
2,1,12,25, 0,23,27.00,30.00,Sunday
135,0.0
213,0.0
262,0.0
2,1,12,25, 0,23,30.00,33.00,Sunday
135,0.0
213,0.0
262,0.0
2,1,12,25, 0,23,33.00,36.00,Sunday
135,0.0
213,0.0
262,0.0
2,1,12,25, 0,23,36.00,39.00,Sunday
135,0.0
213,0.0
262,0.0
2,1,12,25, 0,23,39.00,42.00,Sunday
135,0.0
213,0.0
262,0.0
2,1,12,25, 0,23,42.00,45.00,Sunday
135,0.0
213,0.0
262,0.0
2,1,12,25, 0,23,45.00,48.00,Sunday
135,0.0
213,0.0
262,0.0
2,1,12,25, 0,23,48.00,51.00,Sunday
135,0.0
213,0.0
262,0.0
2,1,12,25, 0,23,51.00,54.00,Sunday
135,0.0
213,0.0
262,0.0
2,1,12,25, 0,23,54.00,57.00,Sunday
135,0.0
213,0.0
262,0.0
2,1,12,25, 0,23,57.00,60.00,Sunday
135,0.0
213,0.0
262,0.0
2,1,12,25, 0,24, 0.00, 3.00,Sunday
135,0.0
213,0.0
262,0.0
2,1,12,25, 0,24, 3.00, 6.00,Sunday
135,0.0
213,0.0
262,0.0
2,1,12,25, 0,24, 6.00, 9.00,Sunday
135,0.0
213,0.0
262,0.0
2,1,12,25, 0,24, 9.00,12.00,Sunday
135,0.0
213,0.0
262,0.0
2,1,12,25, 0,24,12.00,15.00,Sunday
135,0.0
213,0.0
262,0.0
2,1,12,25, 0,24,15.00,18.00,Sunday
135,0.0
213,0.0
262,0.0
2,1,12,25, 0,24,18.00,21.00,Sunday
135,0.0
213,0.0
262,0.0
2,1,12,25, 0,24,21.00,24.00,Sunday
135,0.0
213,0.0
262,0.0
2,1,12,25, 0,24,24.00,27.00,Sunday
135,0.0
213,0.0
262,0.0
2,1,12,25, 0,24,27.00,30.00,Sunday
135,0.0
213,0.0
262,0.0
2,1,12,25, 0,24,30.00,33.00,Sunday
135,0.0
213,0.0
262,0.0
2,1,12,25, 0,24,33.00,36.00,Sunday
135,0.0
213,0.0
262,0.0
2,1,12,25, 0,24,36.00,39.00,Sunday
135,0.0
213,0.0
262,0.0
2,1,12,25, 0,24,39.00,42.00,Sunday
135,0.0
213,0.0
262,0.0
2,1,12,25, 0,24,42.00,45.00,Sunday
135,0.0
213,0.0
262,0.0
2,1,12,25, 0,24,45.00,48.00,Sunday
135,0.0
213,0.0
262,0.0
2,1,12,25, 0,24,48.00,51.00,Sunday
135,0.0
213,0.0
262,0.0
2,1,12,25, 0,24,51.00,54.00,Sunday
135,0.0
213,0.0
262,0.0
2,1,12,25, 0,24,54.00,57.00,Sunday
135,0.0
213,0.0
262,0.0
2,1,12,25, 0,24,57.00,60.00,Sunday
135,0.0
213,0.0
262,0.0
End of Data
 Number of Records Written=        1440
