Program Version,EnergyPlus, Version 22.1.0-ed759b17ee, YMD=2022.06.14 14:13
1,5,Environment Title[],Latitude[deg],Longitude[deg],Time Zone[],Elevation[m]
2,8,Day of Simulation[],Month[],Day of Month[],DST Indicator[1=yes 0=no],Hour[],StartMinute[],EndMinute[],DayType
3,5,Cumulative Day of Simulation[],Month[],Day of Month[],DST Indicator[1=yes 0=no],DayType  ! When Daily Report Variables Requested
4,2,Cumulative Days of Simulation[],Month[]  ! When Monthly Report Variables Requested
5,1,Cumulative Days of Simulation[] ! When Run Period Report Variables Requested
6,1,Calendar Year of Simulation[] ! When Annual Report Variables Requested
7,1,Environment,Site Outdoor Air Drybulb Temperature [C] !TimeStep
8,1,Environment,Site Outdoor Air Relative Humidity [%] !TimeStep
9,1,Environment,Site Wind Speed [m/s] !TimeStep
10,1,Environment,Site Wind Direction [deg] !TimeStep
11,1,MURO_ESTE,Surface Outside Face Incident Solar Radiation Rate per Area [W/m2] !TimeStep
12,1,MURO_NORTE,Surface Outside Face Incident Solar Radiation Rate per Area [W/m2] !TimeStep
13,1,MURO_OESTE,Surface Outside Face Incident Solar Radiation Rate per Area [W/m2] !TimeStep
14,1,MURO_SUR,Surface Outside Face Incident Solar Radiation Rate per Area [W/m2] !TimeStep
15,1,TECHO,Surface Outside Face Incident Solar Radiation Rate per Area [W/m2] !TimeStep
16,1,ZN001:WALL002:WIN001,Surface Outside Face Incident Solar Radiation Rate per Area [W/m2] !TimeStep
17,1,ZN001:WALL002:WIN001,Surface Window Total Glazing Layers Absorbed Solar Radiation Rate [W] !TimeStep
18,1,ZN001:WALL002:WIN001,Surface Window Transmitted Solar Radiation Rate [W] !TimeStep
19,1,ZN001:WALL002:WIN001,Surface Window Heat Gain Rate [W] !TimeStep
20,1,ZN001:WALL002:WIN001,Surface Window Heat Loss Rate [W] !TimeStep
21,1,ZN001:WALL002:WIN001,Surface Window Shading Device Absorbed Solar Radiation Rate [W] !TimeStep
22,1,ZN001:WALL002:WIN001,Surface Window Transmitted Solar Radiation Energy [J] !TimeStep
23,1,ZN001:WALL002:WIN001,Surface Window Transmitted Beam Solar Radiation Energy [J] !TimeStep
24,1,ZN001:WALL002:WIN001,Surface Window Transmitted Diffuse Solar Radiation Energy [J] !TimeStep
25,1,ZN001:WALL002:WIN001,Surface Window Heat Gain Energy [J] !TimeStep
26,1,ZN001:WALL002:WIN001,Surface Window Heat Loss Energy [J] !TimeStep
27,1,ZN001:WALL002:WIN001,Surface Window System Solar Transmittance [] !TimeStep
28,1,ZN001:WALL002:WIN001,Surface Window System Solar Reflectance [] !TimeStep
29,1,ZN001:WALL002:WIN001,Surface Window System Solar Absorptance [] !TimeStep
30,1,ZN001:WALL001:WIN001,Surface Outside Face Incident Solar Radiation Rate per Area [W/m2] !TimeStep
31,1,ZN001:WALL001:WIN001,Surface Window Total Glazing Layers Absorbed Solar Radiation Rate [W] !TimeStep
32,1,ZN001:WALL001:WIN001,Surface Window Transmitted Solar Radiation Rate [W] !TimeStep
33,1,ZN001:WALL001:WIN001,Surface Window Heat Gain Rate [W] !TimeStep
34,1,ZN001:WALL001:WIN001,Surface Window Heat Loss Rate [W] !TimeStep
35,1,ZN001:WALL001:WIN001,Surface Window Shading Device Absorbed Solar Radiation Rate [W] !TimeStep
36,1,ZN001:WALL001:WIN001,Surface Window Transmitted Solar Radiation Energy [J] !TimeStep
37,1,ZN001:WALL001:WIN001,Surface Window Transmitted Beam Solar Radiation Energy [J] !TimeStep
38,1,ZN001:WALL001:WIN001,Surface Window Transmitted Diffuse Solar Radiation Energy [J] !TimeStep
39,1,ZN001:WALL001:WIN001,Surface Window Heat Gain Energy [J] !TimeStep
40,1,ZN001:WALL001:WIN001,Surface Window Heat Loss Energy [J] !TimeStep
41,1,ZN001:WALL001:WIN001,Surface Window System Solar Transmittance [] !TimeStep
42,1,ZN001:WALL001:WIN001,Surface Window System Solar Reflectance [] !TimeStep
43,1,ZN001:WALL001:WIN001,Surface Window System Solar Absorptance [] !TimeStep
44,1,ZN001:WALL002:WIN001,Surface Shading Device Is On Time Fraction [] !TimeStep
45,1,ZN001:WALL002:WIN001,Surface Window Blind Slat Angle [deg] !TimeStep
46,1,ZN001:WALL001:WIN001,Surface Shading Device Is On Time Fraction [] !TimeStep
47,1,ZN001:WALL001:WIN001,Surface Window Blind Slat Angle [deg] !TimeStep
48,1,THERMAL ZONE: MODELO_SIMPLE,Zone Mean Air Temperature [C] !TimeStep
49,1,THERMAL ZONE: MODELO_SIMPLE,Zone Air System Sensible Heating Energy [J] !TimeStep
134,1,THERMAL ZONE: MODELO_SIMPLE,Zone Air System Sensible Cooling Energy [J] !TimeStep
183,1,THERMAL ZONE: MODELO_SIMPLE,Zone Air System Sensible Heating Rate [W] !TimeStep
184,1,THERMAL ZONE: MODELO_SIMPLE,Zone Air System Sensible Cooling Rate [W] !TimeStep
185,1,THERMAL ZONE: MODELO_SIMPLE,Zone Air Temperature [C] !TimeStep
186,1,THERMAL ZONE: MODELO_SIMPLE,Zone Air Humidity Ratio [] !TimeStep
187,1,THERMAL ZONE: MODELO_SIMPLE,Zone Air Relative Humidity [%] !TimeStep
288,1,PEOPLE,Zone Thermal Comfort Fanger Model PMV [] !TimeStep
289,1,PEOPLE,Zone Thermal Comfort Fanger Model PPD [%] !TimeStep
290,1,THERMAL ZONE: MODELO_SIMPLE,Zone Thermal Comfort ASHRAE 55 Simple Model Summer or Winter Clothes Not Comfortable Time [hr] !TimeStep
213,1,Heating:DistrictHeating [J] !TimeStep
262,1,Cooling:DistrictCooling [J] !TimeStep
135,1,Cooling:EnergyTransfer [J] !TimeStep
End of Data Dictionary
1,DDMM, -32.90, -68.87,  -3.00, 676.00
2,1,12,25, 0, 1, 0.00, 3.00,Sunday
7,16.224999999999998
8,57.1
9,0.6499999999999999
10,224.3
11,0.0
12,0.0
13,0.0
14,0.0
15,0.0
16,0.0
17,0.0
18,0.0
19,0.0
20,22.303947235875786
21,0.0
22,0.0
23,0.0
24,0.0
25,0.0
26,4014.7105024576413
27,0.0
28,0.0
29,0.0
30,0.0
31,0.0
32,0.0
33,0.0
34,66.54547543433965
35,0.0
36,0.0
37,0.0
38,0.0
39,0.0
40,11978.185578181137
41,0.0
42,0.0
43,0.0
44,0.0
45,0.0
46,0.0
47,0.0
48,19.24763595379208
288,-6.149399625220828
289,100.0
290,0.05
49,0.0
134,0.0
183,0.0
184,0.0
185,19.24763595379208
186,0.006978672831292976
187,46.71873124956804
135,0.0
213,0.0
262,0.0
2,1,12,25, 0, 1, 3.00, 6.00,Sunday
7,16.150000000000002
8,57.2
9,0.7000000000000001
10,223.6
11,0.0
12,0.0
13,0.0
14,0.0
15,0.0
16,0.0
17,0.0
18,0.0
19,0.0
20,22.48192365077054
21,0.0
22,0.0
23,0.0
24,0.0
25,0.0
26,4046.7462571386973
27,0.0
28,0.0
29,0.0
30,0.0
31,0.0
32,0.0
33,0.0
34,67.09358520761063
35,0.0
36,0.0
37,0.0
38,0.0
39,0.0
40,12076.845337369914
41,0.0
42,0.0
43,0.0
44,0.0
45,0.0
46,0.0
47,0.0
48,19.223512309831598
288,-6.160417621634653
289,100.0
290,0.05
49,0.0
134,0.0
183,0.0
184,0.0
185,19.223512309831598
186,0.006984707895756848
187,46.83096874860043
135,0.0
213,0.0
262,0.0
2,1,12,25, 0, 1, 6.00, 9.00,Sunday
7,16.075
8,57.3
9,0.75
10,222.9
11,0.0
12,0.0
13,0.0
14,0.0
15,0.0
16,0.0
17,0.0
18,0.0
19,0.0
20,22.657798962171437
21,0.0
22,0.0
23,0.0
24,0.0
25,0.0
26,4078.4038131908587
27,0.0
28,0.0
29,0.0
30,0.0
31,0.0
32,0.0
33,0.0
34,67.6385415231291
35,0.0
36,0.0
37,0.0
38,0.0
39,0.0
40,12174.937474163238
41,0.0
42,0.0
43,0.0
44,0.0
45,0.0
46,0.0
47,0.0
48,19.19835702222081
288,-6.172033824740752
289,100.0
290,0.05
49,0.0
134,0.0
183,0.0
184,0.0
185,19.19835702222081
186,0.006987999308498566
187,46.928250132105866
135,0.0
213,0.0
262,0.0
2,1,12,25, 0, 1, 9.00,12.00,Sunday
7,16.0
8,57.400000000000006
9,0.8
10,222.2
11,0.0
12,0.0
13,0.0
14,0.0
15,0.0
16,0.0
17,0.0
18,0.0
19,0.0
20,22.831697677881532
21,0.0
22,0.0
23,0.0
24,0.0
25,0.0
26,4109.705582018676
27,0.0
28,0.0
29,0.0
30,0.0
31,0.0
32,0.0
33,0.0
34,68.18101885475173
35,0.0
36,0.0
37,0.0
38,0.0
39,0.0
40,12272.583393855311
41,0.0
42,0.0
43,0.0
44,0.0
45,0.0
46,0.0
47,0.0
48,19.172504824891938
288,-6.184100412751376
289,100.0
290,0.05
49,0.0
134,0.0
183,0.0
184,0.0
185,19.172504824891938
186,0.006988772212034205
187,47.011028441089756
135,0.0
213,0.0
262,0.0
2,1,12,25, 0, 1,12.00,15.00,Sunday
7,15.925
8,57.5
9,0.85
10,221.5
11,0.0
12,0.0
13,0.0
14,0.0
15,0.0
16,0.0
17,0.0
18,0.0
19,0.0
20,23.003216121590537
21,0.0
22,0.0
23,0.0
24,0.0
25,0.0
26,4140.578901886297
27,0.0
28,0.0
29,0.0
30,0.0
31,0.0
32,0.0
33,0.0
34,68.72155066135836
35,0.0
36,0.0
37,0.0
38,0.0
39,0.0
40,12369.879119044506
41,0.0
42,0.0
43,0.0
44,0.0
45,0.0
46,0.0
47,0.0
48,19.14622234046969
288,-6.196487653427561
289,100.0
290,0.05
49,0.0
134,0.0
183,0.0
184,0.0
185,19.14622234046969
186,0.006987317720069389
187,47.080388981996116
135,0.0
213,0.0
262,0.0
2,1,12,25, 0, 1,15.00,18.00,Sunday
7,15.850000000000001
8,57.599999999999994
9,0.8999999999999999
10,220.8
11,0.0
12,0.0
13,0.0
14,0.0
15,0.0
16,0.0
17,0.0
18,0.0
19,0.0
20,23.17641279062537
21,0.0
22,0.0
23,0.0
24,0.0
25,0.0
26,4171.754302312566
27,0.0
28,0.0
29,0.0
30,0.0
31,0.0
32,0.0
33,0.0
34,69.25993160685289
35,0.0
36,0.0
37,0.0
38,0.0
39,0.0
40,12466.787689233519
41,0.0
42,0.0
43,0.0
44,0.0
45,0.0
46,0.0
47,0.0
48,19.119665710236053
288,-6.209119595540267
289,100.0
290,0.05
49,0.0
134,0.0
183,0.0
184,0.0
185,19.119665710236053
186,0.006983890106651445
187,47.13750354207087
135,0.0
213,0.0
262,0.0
2,1,12,25, 0, 1,18.00,21.00,Sunday
7,15.775
8,57.7
9,0.95
10,220.1
11,0.0
12,0.0
13,0.0
14,0.0
15,0.0
16,0.0
17,0.0
18,0.0
19,0.0
20,23.351978105624458
21,0.0
22,0.0
23,0.0
24,0.0
25,0.0
26,4203.3560590124025
27,0.0
28,0.0
29,0.0
30,0.0
31,0.0
32,0.0
33,0.0
34,69.80523245908128
35,0.0
36,0.0
37,0.0
38,0.0
39,0.0
40,12564.941842634631
41,0.0
42,0.0
43,0.0
44,0.0
45,0.0
46,0.0
47,0.0
48,19.092908025745846
288,-6.221951791615701
289,100.0
290,0.05
49,0.0
134,0.0
183,0.0
184,0.0
185,19.092908025745846
186,0.006978696827385814
187,47.18347632475034
135,0.0
213,0.0
262,0.0
2,1,12,25, 0, 1,21.00,24.00,Sunday
7,15.7
8,57.8
9,1.0
10,219.4
11,0.0
12,0.0
13,0.0
14,0.0
15,0.0
16,0.0
17,0.0
18,0.0
19,0.0
20,23.529455527732317
21,0.0
22,0.0
23,0.0
24,0.0
25,0.0
26,4235.301994991817
27,0.0
28,0.0
29,0.0
30,0.0
31,0.0
32,0.0
33,0.0
34,70.35586099619803
35,0.0
36,0.0
37,0.0
38,0.0
39,0.0
40,12664.054979315646
41,0.0
42,0.0
43,0.0
44,0.0
45,0.0
46,0.0
47,0.0
48,19.06598049673777
288,-6.234963750331866
289,100.0
290,0.05
49,0.0
134,0.0
183,0.0
184,0.0
185,19.06598049673777
186,0.0069719126976796626
187,47.21933205592194
135,0.0
213,0.0
262,0.0
2,1,12,25, 0, 1,24.00,27.00,Sunday
7,15.625000000000002
8,57.900000000000006
9,1.05
10,218.7
11,0.0
12,0.0
13,0.0
14,0.0
15,0.0
16,0.0
17,0.0
18,0.0
19,0.0
20,23.708466505715258
21,0.0
22,0.0
23,0.0
24,0.0
25,0.0
26,4267.523971028746
27,0.0
28,0.0
29,0.0
30,0.0
31,0.0
32,0.0
33,0.0
34,70.9107336625593
35,0.0
36,0.0
37,0.0
38,0.0
39,0.0
40,12763.932059260673
41,0.0
42,0.0
43,0.0
44,0.0
45,0.0
46,0.0
47,0.0
48,19.03890070502731
288,-6.2455205820814665
289,100.0
290,0.05
49,0.0
134,0.0
183,0.0
184,0.0
185,19.03890070502731
186,0.006963691826648851
187,47.24599416115768
135,0.0
213,0.0
262,0.0
2,1,12,25, 0, 1,27.00,30.00,Sunday
7,15.55
8,58.0
9,1.1
10,218.0
11,0.0
12,0.0
13,0.0
14,0.0
15,0.0
16,0.0
17,0.0
18,0.0
19,0.0
20,23.888927158411796
21,0.0
22,0.0
23,0.0
24,0.0
25,0.0
26,4300.006888514124
27,0.0
28,0.0
29,0.0
30,0.0
31,0.0
32,0.0
33,0.0
34,71.46964902272971
35,0.0
36,0.0
37,0.0
38,0.0
39,0.0
40,12864.536824091349
41,0.0
42,0.0
43,0.0
44,0.0
45,0.0
46,0.0
47,0.0
48,19.01168070836483
288,-6.259159883144485
289,100.0
290,0.05
49,0.0
134,0.0
183,0.0
184,0.0
185,19.01168070836483
186,0.006954173446147472
187,47.2643147445777
135,0.0
213,0.0
262,0.0
2,1,12,25, 0, 1,30.00,33.00,Sunday
7,15.475000000000001
8,58.1
9,1.1500000000000001
10,217.3
11,0.0
12,0.0
13,0.0
14,0.0
15,0.0
16,0.0
17,0.0
18,0.0
19,0.0
20,24.070617664700926
21,0.0
22,0.0
23,0.0
24,0.0
25,0.0
26,4332.711179646167
27,0.0
28,0.0
29,0.0
30,0.0
31,0.0
32,0.0
33,0.0
34,72.03194570088684
35,0.0
36,0.0
37,0.0
38,0.0
39,0.0
40,12965.750226159631
41,0.0
42,0.0
43,0.0
44,0.0
45,0.0
46,0.0
47,0.0
48,18.984331109634432
288,-6.272934931443327
289,100.0
290,0.05
49,0.0
134,0.0
183,0.0
184,0.0
185,18.984331109634432
186,0.006943484174241593
187,47.27507236736809
135,0.0
213,0.0
262,0.0
2,1,12,25, 0, 1,33.00,36.00,Sunday
7,15.400000000000002
8,58.2
9,1.2
10,216.6
11,0.0
12,0.0
13,0.0
14,0.0
15,0.0
16,0.0
17,0.0
18,0.0
19,0.0
20,24.25353968533229
21,0.0
22,0.0
23,0.0
24,0.0
25,0.0
26,4365.637143359812
27,0.0
28,0.0
29,0.0
30,0.0
31,0.0
32,0.0
33,0.0
34,72.59763590664811
35,0.0
36,0.0
37,0.0
38,0.0
39,0.0
40,13067.574463196659
41,0.0
42,0.0
43,0.0
44,0.0
45,0.0
46,0.0
47,0.0
48,18.956859038554256
288,-6.286838413935961
289,100.0
290,0.05
49,0.0
134,0.0
183,0.0
184,0.0
185,18.956859038554256
186,0.006931738985297048
187,47.27897240424328
135,0.0
213,0.0
262,0.0
2,1,12,25, 0, 1,36.00,39.00,Sunday
7,15.325000000000001
8,58.3
9,1.25
10,215.9
11,0.0
12,0.0
13,0.0
14,0.0
15,0.0
16,0.0
17,0.0
18,0.0
19,0.0
20,24.43752813200272
21,0.0
22,0.0
23,0.0
24,0.0
25,0.0
26,4398.755063760489
27,0.0
28,0.0
29,0.0
30,0.0
31,0.0
32,0.0
33,0.0
34,73.16619668683609
35,0.0
36,0.0
37,0.0
38,0.0
39,0.0
40,13169.915403630495
41,0.0
42,0.0
43,0.0
44,0.0
45,0.0
46,0.0
47,0.0
48,18.929270186096183
288,-6.30085930859148
289,100.0
290,0.05
49,0.0
134,0.0
183,0.0
184,0.0
185,18.929270186096183
186,0.006919042053124613
187,47.27666909302554
135,0.0
213,0.0
262,0.0
2,1,12,25, 0, 1,39.00,42.00,Sunday
7,15.25
8,58.4
9,1.2999999999999998
10,215.2
11,0.0
12,0.0
13,0.0
14,0.0
15,0.0
16,0.0
17,0.0
18,0.0
19,0.0
20,24.622615993373945
21,0.0
22,0.0
23,0.0
24,0.0
25,0.0
26,4432.07087880731
27,0.0
28,0.0
29,0.0
30,0.0
31,0.0
32,0.0
33,0.0
34,73.73772054006866
35,0.0
36,0.0
37,0.0
38,0.0
39,0.0
40,13272.78969721236
41,0.0
42,0.0
43,0.0
44,0.0
45,0.0
46,0.0
47,0.0
48,18.901567260755485
288,-6.312298024650385
289,100.0
290,0.05
49,0.0
134,0.0
183,0.0
184,0.0
185,18.901567260755485
186,0.00690548761971042
187,47.26875681919488
135,0.0
213,0.0
262,0.0
2,1,12,25, 0, 1,42.00,45.00,Sunday
7,15.175
8,58.5
9,1.35
10,214.5
11,0.0
12,0.0
13,0.0
14,0.0
15,0.0
16,0.0
17,0.0
18,0.0
19,0.0
20,24.808662172057513
21,0.0
22,0.0
23,0.0
24,0.0
25,0.0
26,4465.559190970353
27,0.0
28,0.0
29,0.0
30,0.0
31,0.0
32,0.0
33,0.0
34,74.3117488987841
35,0.0
36,0.0
37,0.0
38,0.0
39,0.0
40,13376.11480178114
41,0.0
42,0.0
43,0.0
44,0.0
45,0.0
46,0.0
47,0.0
48,18.873752502747827
288,-6.327365927322199
289,100.0
290,0.05
49,0.0
134,0.0
183,0.0
184,0.0
185,18.873752502747827
186,0.006891160889659733
187,47.2557728579363
135,0.0
213,0.0
262,0.0
2,1,12,25, 0, 1,45.00,48.00,Sunday
7,15.100000000000001
8,58.6
9,1.4000000000000001
10,213.8
11,0.0
12,0.0
13,0.0
14,0.0
15,0.0
16,0.0
17,0.0
18,0.0
19,0.0
20,24.995713743351097
21,0.0
22,0.0
23,0.0
24,0.0
25,0.0
26,4499.228473803198
27,0.0
28,0.0
29,0.0
30,0.0
31,0.0
32,0.0
33,0.0
34,74.88841329291411
35,0.0
36,0.0
37,0.0
38,0.0
39,0.0
40,13479.91439272454
41,0.0
42,0.0
43,0.0
44,0.0
45,0.0
46,0.0
47,0.0
48,18.84582611828363
288,-6.342535923448646
289,100.0
290,0.05
49,0.0
134,0.0
183,0.0
184,0.0
185,18.84582611828363
186,0.006876138922315157
187,47.2382114110159
135,0.0
213,0.0
262,0.0
2,1,12,25, 0, 1,48.00,51.00,Sunday
7,15.025
8,58.7
9,1.4500000000000002
10,213.1
11,0.0
12,0.0
13,0.0
14,0.0
15,0.0
16,0.0
17,0.0
18,0.0
19,0.0
20,25.183643261130285
21,0.0
22,0.0
23,0.0
24,0.0
25,0.0
26,4533.055787003452
27,0.0
28,0.0
29,0.0
30,0.0
31,0.0
32,0.0
33,0.0
34,75.46729491357111
35,0.0
36,0.0
37,0.0
38,0.0
39,0.0
40,13584.113084442799
41,0.0
42,0.0
43,0.0
44,0.0
45,0.0
46,0.0
47,0.0
48,18.81778850997714
288,-6.357802203747277
289,100.0
290,0.05
49,0.0
134,0.0
183,0.0
184,0.0
185,18.81778850997714
186,0.006860491395073515
187,47.216517102566364
135,0.0
213,0.0
262,0.0
2,1,12,25, 0, 1,51.00,54.00,Sunday
7,14.95
8,58.8
9,1.5000000000000002
10,212.4
11,0.0
12,0.0
13,0.0
14,0.0
15,0.0
16,0.0
17,0.0
18,0.0
19,0.0
20,25.372505470269505
21,0.0
22,0.0
23,0.0
24,0.0
25,0.0
26,4567.050984648511
27,0.0
28,0.0
29,0.0
30,0.0
31,0.0
32,0.0
33,0.0
34,76.04854877898417
35,0.0
36,0.0
37,0.0
38,0.0
39,0.0
40,13688.73878021715
41,0.0
42,0.0
43,0.0
44,0.0
45,0.0
46,0.0
47,0.0
48,18.78963840395399
288,-6.373163315881812
289,100.0
290,0.05
49,0.0
134,0.0
183,0.0
184,0.0
185,18.78963840395399
186,0.006844281337468186
187,47.191103658525805
135,0.0
213,0.0
262,0.0
2,1,12,25, 0, 1,54.00,57.00,Sunday
7,14.875000000000002
8,58.9
9,1.55
10,211.7
11,0.0
12,0.0
13,0.0
14,0.0
15,0.0
16,0.0
17,0.0
18,0.0
19,0.0
20,25.562181717721053
21,0.0
22,0.0
23,0.0
24,0.0
25,0.0
26,4601.19270918979
27,0.0
28,0.0
29,0.0
30,0.0
31,0.0
32,0.0
33,0.0
34,76.63178370499642
35,0.0
36,0.0
37,0.0
38,0.0
39,0.0
40,13793.721066899356
41,0.0
42,0.0
43,0.0
44,0.0
45,0.0
46,0.0
47,0.0
48,18.761374858108926
288,-6.38861484545062
289,100.0
290,0.05
49,0.0
134,0.0
183,0.0
184,0.0
185,18.761374858108926
186,0.006827565755229723
187,47.16233528217974
135,0.0
213,0.0
262,0.0
2,1,12,25, 0, 1,57.00,60.00,Sunday
7,14.8
8,59.0
9,1.6
10,211.0
11,0.0
12,0.0
13,0.0
14,0.0
15,0.0
16,0.0
17,0.0
18,0.0
19,0.0
20,25.752730878097474
21,0.0
22,0.0
23,0.0
24,0.0
25,0.0
26,4635.491558057545
27,0.0
28,0.0
29,0.0
30,0.0
31,0.0
32,0.0
33,0.0
34,77.21716899270291
35,0.0
36,0.0
37,0.0
38,0.0
39,0.0
40,13899.090418686523
41,0.0
42,0.0
43,0.0
44,0.0
45,0.0
46,0.0
47,0.0
48,18.73299524032206
288,-6.404156615943027
289,100.0
290,0.05
49,0.0
134,0.0
183,0.0
184,0.0
185,18.73299524032206
186,0.006810396193599982
187,47.130555501334356
135,0.0
213,0.0
262,0.0
2,1,12,25, 0, 2, 0.00, 3.00,Sunday
7,14.75
8,59.199999999999996
9,1.645
10,210.9
11,0.0
12,0.0
13,0.0
14,0.0
15,0.0
16,0.0
17,0.0
18,0.0
19,0.0
20,25.83383049131602
21,0.0
22,0.0
23,0.0
24,0.0
25,0.0
26,4650.089488436884
27,0.0
28,0.0
29,0.0
30,0.0
31,0.0
32,0.0
33,0.0
34,77.47444462577988
35,0.0
36,0.0
37,0.0
38,0.0
39,0.0
40,13945.400032640378
41,0.0
42,0.0
43,0.0
44,0.0
45,0.0
46,0.0
47,0.0
48,18.705844799029975
288,-6.416002335991091
289,100.0
290,0.05
49,0.0
134,0.0
183,0.0
184,0.0
185,18.705844799029975
186,0.0067939969207862294
187,47.09797563502425
135,0.0
213,0.0
262,0.0
2,1,12,25, 0, 2, 3.00, 6.00,Sunday
7,14.700000000000001
8,59.400000000000006
9,1.6900000000000002
10,210.8
11,0.0
12,0.0
13,0.0
14,0.0
15,0.0
16,0.0
17,0.0
18,0.0
19,0.0
20,25.919209686688482
21,0.0
22,0.0
23,0.0
24,0.0
25,0.0
26,4665.457743603927
27,0.0
28,0.0
29,0.0
30,0.0
31,0.0
32,0.0
33,0.0
34,77.74212703482328
35,0.0
36,0.0
37,0.0
38,0.0
39,0.0
40,13993.58286626819
41,0.0
42,0.0
43,0.0
44,0.0
45,0.0
46,0.0
47,0.0
48,18.680363424440717
288,-6.4293377764876665
289,100.0
290,0.05
49,0.0
134,0.0
183,0.0
184,0.0
185,18.680363424440717
186,0.006779052509581283
187,47.07023568806844
135,0.0
213,0.0
262,0.0
2,1,12,25, 0, 2, 6.00, 9.00,Sunday
7,14.65
8,59.599999999999994
9,1.735
10,210.7
11,0.0
12,0.0
13,0.0
14,0.0
15,0.0
16,0.0
17,0.0
18,0.0
19,0.0
20,26.007110866901208
21,0.0
22,0.0
23,0.0
24,0.0
25,0.0
26,4681.279956042217
27,0.0
28,0.0
29,0.0
30,0.0
31,0.0
32,0.0
33,0.0
34,78.01666300151348
35,0.0
36,0.0
37,0.0
38,0.0
39,0.0
40,14042.999340272427
41,0.0
42,0.0
43,0.0
44,0.0
45,0.0
46,0.0
47,0.0
48,18.65622279845597
288,-6.442014215178576
289,100.0
290,0.05
49,0.0
134,0.0
183,0.0
184,0.0
185,18.65622279845597
186,0.006765684202691293
187,47.049192781292916
135,0.0
213,0.0
262,0.0
2,1,12,25, 0, 2, 9.00,12.00,Sunday
7,14.600000000000001
8,59.800000000000004
9,1.7800000000000002
10,210.6
11,0.0
12,0.0
13,0.0
14,0.0
15,0.0
16,0.0
17,0.0
18,0.0
19,0.0
20,26.097224880092732
21,0.0
22,0.0
23,0.0
24,0.0
25,0.0
26,4697.500478416691
27,0.0
28,0.0
29,0.0
30,0.0
31,0.0
32,0.0
33,0.0
34,78.29718985131063
35,0.0
36,0.0
37,0.0
38,0.0
39,0.0
40,14093.494173235915
41,0.0
42,0.0
43,0.0
44,0.0
45,0.0
46,0.0
47,0.0
48,18.632890915782767
288,-6.454269349939784
289,100.0
290,0.05
49,0.0
134,0.0
183,0.0
184,0.0
185,18.632890915782767
186,0.006753760222539448
187,47.035558880827836
135,0.0
213,0.0
262,0.0
2,1,12,25, 0, 2,12.00,15.00,Sunday
7,14.55
8,60.0
9,1.8250000000000002
10,210.5
11,0.0
12,0.0
13,0.0
14,0.0
15,0.0
16,0.0
17,0.0
18,0.0
19,0.0
20,26.188873778143815
21,0.0
22,0.0
23,0.0
24,0.0
25,0.0
26,4713.997280065887
27,0.0
28,0.0
29,0.0
30,0.0
31,0.0
32,0.0
33,0.0
34,78.58174871052071
35,0.0
36,0.0
37,0.0
38,0.0
39,0.0
40,14144.714767893729
41,0.0
42,0.0
43,0.0
44,0.0
45,0.0
46,0.0
47,0.0
48,18.609952873020145
288,-6.466290703566658
289,100.0
290,0.05
49,0.0
134,0.0
183,0.0
184,0.0
185,18.609952873020145
186,0.0067431001873034645
187,47.0293587672258
135,0.0
213,0.0
262,0.0
2,1,12,25, 0, 2,15.00,18.00,Sunday
7,14.5
8,60.199999999999996
9,1.8699999999999999
10,210.4
11,0.0
12,0.0
13,0.0
14,0.0
15,0.0
16,0.0
17,0.0
18,0.0
19,0.0
20,26.28162500917912
21,0.0
22,0.0
23,0.0
24,0.0
25,0.0
26,4730.692501652242
27,0.0
28,0.0
29,0.0
30,0.0
31,0.0
32,0.0
33,0.0
34,78.86912371607701
35,0.0
36,0.0
37,0.0
38,0.0
39,0.0
40,14196.442268893863
41,0.0
42,0.0
43,0.0
44,0.0
45,0.0
46,0.0
47,0.0
48,18.587168334758996
288,-6.478192732139584
289,100.0
290,0.05
49,0.0
134,0.0
183,0.0
184,0.0
185,18.587168334758996
186,0.006733547497952441
187,47.03025042264051
135,0.0
213,0.0
262,0.0
2,1,12,25, 0, 2,18.00,21.00,Sunday
7,14.450000000000001
8,60.4
9,1.915
10,210.3
11,0.0
12,0.0
13,0.0
14,0.0
15,0.0
16,0.0
17,0.0
18,0.0
19,0.0
20,26.375121009443752
21,0.0
22,0.0
23,0.0
24,0.0
25,0.0
26,4747.521781699876
27,0.0
28,0.0
29,0.0
30,0.0
31,0.0
32,0.0
33,0.0
34,79.1582732177333
35,0.0
36,0.0
37,0.0
38,0.0
39,0.0
40,14248.489179191993
41,0.0
42,0.0
43,0.0
44,0.0
45,0.0
46,0.0
47,0.0
48,18.56441930396602
288,-6.490032345429329
289,100.0
290,0.05
49,0.0
134,0.0
183,0.0
184,0.0
185,18.56441930396602
186,0.00672497647622109
187,47.03774818829667
135,0.0
213,0.0
262,0.0
2,1,12,25, 0, 2,21.00,24.00,Sunday
7,14.400000000000002
8,60.6
9,1.96
10,210.2
11,0.0
12,0.0
13,0.0
14,0.0
15,0.0
16,0.0
17,0.0
18,0.0
19,0.0
20,26.46926125166997
21,0.0
22,0.0
23,0.0
24,0.0
25,0.0
26,4764.467025300594
27,0.0
28,0.0
29,0.0
30,0.0
31,0.0
32,0.0
33,0.0
34,79.44892107808334
35,0.0
36,0.0
37,0.0
38,0.0
39,0.0
40,14300.805794055002
41,0.0
42,0.0
43,0.0
44,0.0
45,0.0
46,0.0
47,0.0
48,18.54164604641336
288,-6.501842931262171
289,100.0
290,0.05
49,0.0
134,0.0
183,0.0
184,0.0
185,18.54164604641336
186,0.006717282607851331
187,47.05133123863811
135,0.0
213,0.0
262,0.0
2,1,12,25, 0, 2,24.00,27.00,Sunday
7,14.350000000000001
8,60.800000000000004
9,2.005
10,210.1
11,0.0
12,0.0
13,0.0
14,0.0
15,0.0
16,0.0
17,0.0
18,0.0
19,0.0
20,26.563905466221705
21,0.0
22,0.0
23,0.0
24,0.0
25,0.0
26,4781.502983919907
27,0.0
28,0.0
29,0.0
30,0.0
31,0.0
32,0.0
33,0.0
34,79.7406424803701
35,0.0
36,0.0
37,0.0
38,0.0
39,0.0
40,14353.315646466617
41,0.0
42,0.0
43,0.0
44,0.0
45,0.0
46,0.0
47,0.0
48,18.518810082591298
288,-6.510657781000754
289,100.0
290,0.05
49,0.0
134,0.0
183,0.0
184,0.0
185,18.518810082591298
186,0.006710374319854567
187,47.07050848123118
135,0.0
213,0.0
262,0.0
2,1,12,25, 0, 2,27.00,30.00,Sunday
7,14.3
8,61.0
9,2.05
10,210.0
11,0.0
12,0.0
13,0.0
14,0.0
15,0.0
16,0.0
17,0.0
18,0.0
19,0.0
20,26.659051450598874
21,0.0
22,0.0
23,0.0
24,0.0
25,0.0
26,4798.629261107797
27,0.0
28,0.0
29,0.0
30,0.0
31,0.0
32,0.0
33,0.0
34,80.03344041033317
35,0.0
36,0.0
37,0.0
38,0.0
39,0.0
40,14406.01927385997
41,0.0
42,0.0
43,0.0
44,0.0
45,0.0
46,0.0
47,0.0
48,18.495875040620376
288,-6.522258888733087
289,100.0
290,0.05
49,0.0
134,0.0
183,0.0
184,0.0
185,18.495875040620376
186,0.006704168992454196
187,47.09483089962806
135,0.0
213,0.0
262,0.0
2,1,12,25, 0, 2,30.00,33.00,Sunday
7,14.25
8,61.2
9,2.0949999999999998
10,209.9
11,0.0
12,0.0
13,0.0
14,0.0
15,0.0
16,0.0
17,0.0
18,0.0
19,0.0
20,26.75459096972478
21,0.0
22,0.0
23,0.0
24,0.0
25,0.0
26,4815.826374550461
27,0.0
28,0.0
29,0.0
30,0.0
31,0.0
32,0.0
33,0.0
34,80.32698243210139
35,0.0
36,0.0
37,0.0
38,0.0
39,0.0
40,14458.85683777825
41,0.0
42,0.0
43,0.0
44,0.0
45,0.0
46,0.0
47,0.0
48,18.472795323396994
288,-6.533894185187909
289,100.0
290,0.05
49,0.0
134,0.0
183,0.0
184,0.0
185,18.472795323396994
186,0.0066985915456312045
187,47.12393572779503
135,0.0
213,0.0
262,0.0
2,1,12,25, 0, 2,33.00,36.00,Sunday
7,14.2
8,61.4
9,2.14
10,209.8
11,0.0
12,0.0
13,0.0
14,0.0
15,0.0
16,0.0
17,0.0
18,0.0
19,0.0
20,26.850518948542984
21,0.0
22,0.0
23,0.0
24,0.0
25,0.0
26,4833.093410737737
27,0.0
28,0.0
29,0.0
30,0.0
31,0.0
32,0.0
33,0.0
34,80.6212660008106
35,0.0
36,0.0
37,0.0
38,0.0
39,0.0
40,14511.82788014591
41,0.0
42,0.0
43,0.0
44,0.0
45,0.0
46,0.0
47,0.0
48,18.449573731228405
288,-6.54556771702827
289,100.0
290,0.05
49,0.0
134,0.0
183,0.0
184,0.0
185,18.449573731228405
186,0.006693573835164278
187,47.157356770544894
135,0.0
213,0.0
262,0.0
2,1,12,25, 0, 2,36.00,39.00,Sunday
7,14.15
8,61.6
9,2.185
10,209.7
11,0.0
12,0.0
13,0.0
14,0.0
15,0.0
16,0.0
17,0.0
18,0.0
19,0.0
20,26.94678531762989
21,0.0
22,0.0
23,0.0
24,0.0
25,0.0
26,4850.42135717338
27,0.0
28,0.0
29,0.0
30,0.0
31,0.0
32,0.0
33,0.0
34,80.91612924095992
35,0.0
36,0.0
37,0.0
38,0.0
39,0.0
40,14564.903263372786
41,0.0
42,0.0
43,0.0
44,0.0
45,0.0
46,0.0
47,0.0
48,18.42647386708578
288,-6.557174677844664
289,100.0
290,0.05
49,0.0
134,0.0
183,0.0
184,0.0
185,18.42647386708578
186,0.006689054199639807
187,47.19390572087171
135,0.0
213,0.0
262,0.0
2,1,12,25, 0, 2,39.00,42.00,Sunday
7,14.100000000000001
8,61.8
9,2.23
10,209.6
11,0.0
12,0.0
13,0.0
14,0.0
15,0.0
16,0.0
17,0.0
18,0.0
19,0.0
20,27.043672386364907
21,0.0
22,0.0
23,0.0
24,0.0
25,0.0
26,4867.861029545683
27,0.0
28,0.0
29,0.0
30,0.0
31,0.0
32,0.0
33,0.0
34,81.2123632379765
35,0.0
36,0.0
37,0.0
38,0.0
39,0.0
40,14618.225382835772
41,0.0
42,0.0
43,0.0
44,0.0
45,0.0
46,0.0
47,0.0
48,18.403637419503834
288,-6.568661426939918
289,100.0
290,0.05
49,0.0
134,0.0
183,0.0
184,0.0
185,18.403637419503834
186,0.006684976953692815
187,47.232786529910484
135,0.0
213,0.0
262,0.0
2,1,12,25, 0, 2,42.00,45.00,Sunday
7,14.05
8,62.0
9,2.275
10,209.5
11,0.0
12,0.0
13,0.0
14,0.0
15,0.0
16,0.0
17,0.0
18,0.0
19,0.0
20,27.141273811049274
21,0.0
22,0.0
23,0.0
24,0.0
25,0.0
26,4885.429285988869
27,0.0
28,0.0
29,0.0
30,0.0
31,0.0
32,0.0
33,0.0
34,81.51020061966521
35,0.0
36,0.0
37,0.0
38,0.0
39,0.0
40,14671.836111539738
41,0.0
42,0.0
43,0.0
44,0.0
45,0.0
46,0.0
47,0.0
48,18.381076216627584
288,-6.580023569513256
289,100.0
290,0.05
49,0.0
134,0.0
183,0.0
184,0.0
185,18.381076216627584
186,0.006681291816039485
187,47.273621450905324
135,0.0
213,0.0
262,0.0
2,1,12,25, 0, 2,45.00,48.00,Sunday
7,14.0
8,62.2
9,2.32
10,209.4
11,0.0
12,0.0
13,0.0
14,0.0
15,0.0
16,0.0
17,0.0
18,0.0
19,0.0
20,27.23966946287957
21,0.0
22,0.0
23,0.0
24,0.0
25,0.0
26,4903.140503318323
27,0.0
28,0.0
29,0.0
30,0.0
31,0.0
32,0.0
33,0.0
34,81.80988022755514
35,0.0
36,0.0
37,0.0
38,0.0
39,0.0
40,14725.778440959926
41,0.0
42,0.0
43,0.0
44,0.0
45,0.0
46,0.0
47,0.0
48,18.358740572039085
288,-6.591285462876477
289,100.0
290,0.05
49,0.0
134,0.0
183,0.0
184,0.0
185,18.358740572039085
186,0.006677953412839383
187,47.31625160641791
135,0.0
213,0.0
262,0.0
2,1,12,25, 0, 2,48.00,51.00,Sunday
7,13.950000000000001
8,62.4
9,2.365
10,209.3
11,0.0
12,0.0
13,0.0
14,0.0
15,0.0
16,0.0
17,0.0
18,0.0
19,0.0
20,27.33874582936992
21,0.0
22,0.0
23,0.0
24,0.0
25,0.0
26,4920.974249286585
27,0.0
28,0.0
29,0.0
30,0.0
31,0.0
32,0.0
33,0.0
34,82.11105767004213
35,0.0
36,0.0
37,0.0
38,0.0
39,0.0
40,14779.990380607584
41,0.0
42,0.0
43,0.0
44,0.0
45,0.0
46,0.0
47,0.0
48,18.336574014329177
288,-6.6024708809657495
289,100.0
290,0.05
49,0.0
134,0.0
183,0.0
184,0.0
185,18.336574014329177
186,0.006674920776061293
187,47.360561900268664
135,0.0
213,0.0
262,0.0
2,1,12,25, 0, 2,51.00,54.00,Sunday
7,13.900000000000002
8,62.6
9,2.41
10,209.2
11,0.0
12,0.0
13,0.0
14,0.0
15,0.0
16,0.0
17,0.0
18,0.0
19,0.0
20,27.43849132715572
21,0.0
22,0.0
23,0.0
24,0.0
25,0.0
26,4938.92843888803
27,0.0
28,0.0
29,0.0
30,0.0
31,0.0
32,0.0
33,0.0
34,82.41371533502823
35,0.0
36,0.0
37,0.0
38,0.0
39,0.0
40,14834.46876030508
41,0.0
42,0.0
43,0.0
44,0.0
45,0.0
46,0.0
47,0.0
48,18.314532651598675
288,-6.613601601534586
289,100.0
290,0.05
49,0.0
134,0.0
183,0.0
184,0.0
185,18.314532651598675
186,0.006672156928405059
187,47.40643308539955
135,0.0
213,0.0
262,0.0
2,1,12,25, 0, 2,54.00,57.00,Sunday
7,13.85
8,62.8
9,2.455
10,209.1
11,0.0
12,0.0
13,0.0
14,0.0
15,0.0
16,0.0
17,0.0
18,0.0
19,0.0
20,27.53879343196458
21,0.0
22,0.0
23,0.0
24,0.0
25,0.0
26,4956.982817753625
27,0.0
28,0.0
29,0.0
30,0.0
31,0.0
32,0.0
33,0.0
34,82.71751351416111
35,0.0
36,0.0
37,0.0
38,0.0
39,0.0
40,14889.152432549
41,0.0
42,0.0
43,0.0
44,0.0
45,0.0
46,0.0
47,0.0
48,18.29258770800356
288,-6.624689723859371
289,100.0
290,0.05
49,0.0
134,0.0
183,0.0
184,0.0
185,18.29258770800356
186,0.006669628510353207
187,47.45372218257703
135,0.0
213,0.0
262,0.0
2,1,12,25, 0, 2,57.00,60.00,Sunday
7,13.8
8,63.0
9,2.5
10,209.0
11,0.0
12,0.0
13,0.0
14,0.0
15,0.0
16,0.0
17,0.0
18,0.0
19,0.0
20,27.639669091923814
21,0.0
22,0.0
23,0.0
24,0.0
25,0.0
26,4975.140436546287
27,0.0
28,0.0
29,0.0
30,0.0
31,0.0
32,0.0
33,0.0
34,83.02251518315376
35,0.0
36,0.0
37,0.0
38,0.0
39,0.0
40,14944.052732967677
41,0.0
42,0.0
43,0.0
44,0.0
45,0.0
46,0.0
47,0.0
48,18.27071918354243
288,-6.635746770772242
289,100.0
290,0.05
49,0.0
134,0.0
183,0.0
184,0.0
185,18.27071918354243
186,0.0066673054045206966
187,47.50228252596596
135,0.0
213,0.0
262,0.0
2,1,12,25, 0, 3, 0.00, 3.00,Sunday
7,13.754999999999999
8,63.099999999999994
9,2.49
10,206.7
11,0.0
12,0.0
13,0.0
14,0.0
15,0.0
16,0.0
17,0.0
18,0.0
19,0.0
20,27.7194305531295
21,0.0
22,0.0
23,0.0
24,0.0
25,0.0
26,4989.49749956331
27,0.0
28,0.0
29,0.0
30,0.0
31,0.0
32,0.0
33,0.0
34,83.27120943274235
35,0.0
36,0.0
37,0.0
38,0.0
39,0.0
40,14988.817697893624
41,0.0
42,0.0
43,0.0
44,0.0
45,0.0
46,0.0
47,0.0
48,18.249174576892628
288,-6.646685655779348
289,100.0
290,0.05
49,0.0
134,0.0
183,0.0
184,0.0
185,18.249174576892628
186,0.0066647171098114825
187,47.5480578891535
135,0.0
213,0.0
262,0.0
2,1,12,25, 0, 3, 3.00, 6.00,Sunday
7,13.71
8,63.2
9,2.48
10,204.4
11,0.0
12,0.0
13,0.0
14,0.0
15,0.0
16,0.0
17,0.0
18,0.0
19,0.0
20,27.799993027546876
21,0.0
22,0.0
23,0.0
24,0.0
25,0.0
26,5003.998744958438
27,0.0
28,0.0
29,0.0
30,0.0
31,0.0
32,0.0
33,0.0
34,83.52165354501659
35,0.0
36,0.0
37,0.0
38,0.0
39,0.0
40,15033.897638102986
41,0.0
42,0.0
43,0.0
44,0.0
45,0.0
46,0.0
47,0.0
48,18.228021000037767
288,-6.657502728931623
289,100.0
290,0.05
49,0.0
134,0.0
183,0.0
184,0.0
185,18.228021000037767
186,0.006661598374198217
187,47.58896309424806
135,0.0
213,0.0
262,0.0
2,1,12,25, 0, 3, 6.00, 9.00,Sunday
7,13.665000000000001
8,63.3
9,2.4699999999999998
10,202.1
11,0.0
12,0.0
13,0.0
14,0.0
15,0.0
16,0.0
17,0.0
18,0.0
19,0.0
20,27.880827576567214
21,0.0
22,0.0
23,0.0
24,0.0
25,0.0
26,5018.548963782098
27,0.0
28,0.0
29,0.0
30,0.0
31,0.0
32,0.0
33,0.0
34,83.77279309550148
35,0.0
36,0.0
37,0.0