Program Version,EnergyPlus, Version 22.1.0-ed759b17ee, YMD=2022.07.06 15:55
1,5,Environment Title[],Latitude[deg],Longitude[deg],Time Zone[],Elevation[m]
2,8,Day of Simulation[],Month[],Day of Month[],DST Indicator[1=yes 0=no],Hour[],StartMinute[],EndMinute[],DayType
3,5,Cumulative Day of Simulation[],Month[],Day of Month[],DST Indicator[1=yes 0=no],DayType  ! When Daily Report Variables Requested
4,2,Cumulative Days of Simulation[],Month[]  ! When Monthly Report Variables Requested
5,1,Cumulative Days of Simulation[] ! When Run Period Report Variables Requested
6,1,Calendar Year of Simulation[] ! When Annual Report Variables Requested
7,1,Environment,Site Outdoor Air Drybulb Temperature [C] !TimeStep
8,1,Environment,Site Outdoor Air Relative Humidity [%] !TimeStep
9,1,Environment,Site Wind Speed [m/s] !TimeStep
10,1,Environment,Site Wind Direction [deg] !TimeStep
11,1,MURO_ESTE,Surface Outside Face Incident Solar Radiation Rate per Area [W/m2] !TimeStep
12,1,MURO_NORTE,Surface Outside Face Incident Solar Radiation Rate per Area [W/m2] !TimeStep
13,1,MURO_OESTE,Surface Outside Face Incident Solar Radiation Rate per Area [W/m2] !TimeStep
14,1,MURO_SUR,Surface Outside Face Incident Solar Radiation Rate per Area [W/m2] !TimeStep
15,1,TECHO,Surface Outside Face Incident Solar Radiation Rate per Area [W/m2] !TimeStep
16,1,ZN001:WALL002:WIN001,Surface Outside Face Incident Solar Radiation Rate per Area [W/m2] !TimeStep
17,1,ZN001:WALL002:WIN001,Surface Window Total Glazing Layers Absorbed Solar Radiation Rate [W] !TimeStep
18,1,ZN001:WALL002:WIN001,Surface Window Transmitted Solar Radiation Rate [W] !TimeStep
19,1,ZN001:WALL002:WIN001,Surface Window Heat Gain Rate [W] !TimeStep
20,1,ZN001:WALL002:WIN001,Surface Window Heat Loss Rate [W] !TimeStep
21,1,ZN001:WALL002:WIN001,Surface Window Shading Device Absorbed Solar Radiation Rate [W] !TimeStep
22,1,ZN001:WALL002:WIN001,Surface Window Transmitted Solar Radiation Energy [J] !TimeStep
23,1,ZN001:WALL002:WIN001,Surface Window Transmitted Beam Solar Radiation Energy [J] !TimeStep
24,1,ZN001:WALL002:WIN001,Surface Window Transmitted Diffuse Solar Radiation Energy [J] !TimeStep
25,1,ZN001:WALL002:WIN001,Surface Window Heat Gain Energy [J] !TimeStep
26,1,ZN001:WALL002:WIN001,Surface Window Heat Loss Energy [J] !TimeStep
27,1,ZN001:WALL002:WIN001,Surface Window System Solar Transmittance [] !TimeStep
28,1,ZN001:WALL002:WIN001,Surface Window System Solar Reflectance [] !TimeStep
29,1,ZN001:WALL002:WIN001,Surface Window System Solar Absorptance [] !TimeStep
30,1,ZN001:WALL001:WIN001,Surface Outside Face Incident Solar Radiation Rate per Area [W/m2] !TimeStep
31,1,ZN001:WALL001:WIN001,Surface Window Total Glazing Layers Absorbed Solar Radiation Rate [W] !TimeStep
32,1,ZN001:WALL001:WIN001,Surface Window Transmitted Solar Radiation Rate [W] !TimeStep
33,1,ZN001:WALL001:WIN001,Surface Window Heat Gain Rate [W] !TimeStep
34,1,ZN001:WALL001:WIN001,Surface Window Heat Loss Rate [W] !TimeStep
35,1,ZN001:WALL001:WIN001,Surface Window Shading Device Absorbed Solar Radiation Rate [W] !TimeStep
36,1,ZN001:WALL001:WIN001,Surface Window Transmitted Solar Radiation Energy [J] !TimeStep
37,1,ZN001:WALL001:WIN001,Surface Window Transmitted Beam Solar Radiation Energy [J] !TimeStep
38,1,ZN001:WALL001:WIN001,Surface Window Transmitted Diffuse Solar Radiation Energy [J] !TimeStep
39,1,ZN001:WALL001:WIN001,Surface Window Heat Gain Energy [J] !TimeStep
40,1,ZN001:WALL001:WIN001,Surface Window Heat Loss Energy [J] !TimeStep
41,1,ZN001:WALL001:WIN001,Surface Window System Solar Transmittance [] !TimeStep
42,1,ZN001:WALL001:WIN001,Surface Window System Solar Reflectance [] !TimeStep
43,1,ZN001:WALL001:WIN001,Surface Window System Solar Absorptance [] !TimeStep
44,1,ZN001:WALL002:WIN001,Surface Shading Device Is On Time Fraction [] !TimeStep
45,1,ZN001:WALL002:WIN001,Surface Window Blind Slat Angle [deg] !TimeStep
46,1,ZN001:WALL001:WIN001,Surface Shading Device Is On Time Fraction [] !TimeStep
47,1,ZN001:WALL001:WIN001,Surface Window Blind Slat Angle [deg] !TimeStep
48,1,THERMAL ZONE: MODELO_SIMPLE,Zone Mean Air Temperature [C] !TimeStep
49,1,THERMAL ZONE: MODELO_SIMPLE,Zone Air System Sensible Heating Energy [J] !TimeStep
134,1,THERMAL ZONE: MODELO_SIMPLE,Zone Air System Sensible Cooling Energy [J] !TimeStep
183,1,THERMAL ZONE: MODELO_SIMPLE,Zone Air System Sensible Heating Rate [W] !TimeStep
184,1,THERMAL ZONE: MODELO_SIMPLE,Zone Air System Sensible Cooling Rate [W] !TimeStep
185,1,THERMAL ZONE: MODELO_SIMPLE,Zone Air Temperature [C] !TimeStep
186,1,THERMAL ZONE: MODELO_SIMPLE,Zone Air Humidity Ratio [] !TimeStep
187,1,THERMAL ZONE: MODELO_SIMPLE,Zone Air Relative Humidity [%] !TimeStep
288,1,PEOPLE,Zone Thermal Comfort Fanger Model PMV [] !TimeStep
289,1,PEOPLE,Zone Thermal Comfort Fanger Model PPD [%] !TimeStep
290,1,THERMAL ZONE: MODELO_SIMPLE,Zone Thermal Comfort ASHRAE 55 Simple Model Summer or Winter Clothes Not Comfortable Time [hr] !TimeStep
213,1,Heating:DistrictHeating [J] !TimeStep
262,1,Cooling:DistrictCooling [J] !TimeStep
135,1,Cooling:EnergyTransfer [J] !TimeStep
End of Data Dictionary
1,DDMM, -32.90, -68.87,  -3.00, 676.00
2,1,12,25, 0, 1, 0.00, 3.00,Sunday
7,16.224999999999998
8,57.1
9,0.6499999999999999
10,224.3
11,0.0
12,0.0
13,0.0
14,0.0
15,0.0
16,0.0
17,0.0
18,0.0
19,0.0
20,19.655772115978074
21,0.0
22,0.0
23,0.0
24,0.0
25,0.0
26,3538.0389808760533
27,0.0
28,0.0
29,0.0
30,0.0
31,0.0
32,0.0
33,0.0
34,58.73698223356701
35,0.0
36,0.0
37,0.0
38,0.0
39,0.0
40,10572.656802042062
41,0.0
42,0.0
43,0.0
44,0.0
45,0.0
46,0.0
47,0.0
48,17.951436806691145
288,-6.765963353558493
289,100.0
290,0.05
49,0.0
134,0.0
183,0.0
184,0.0
185,17.951436806691145
186,0.006848516466963072
187,49.734221660071704
135,0.0
213,0.0
262,0.0
2,1,12,25, 0, 1, 3.00, 6.00,Sunday
7,16.150000000000002
8,57.2
9,0.7000000000000001
10,223.6
11,0.0
12,0.0
13,0.0
14,0.0
15,0.0
16,0.0
17,0.0
18,0.0
19,0.0
20,20.08938288919332
21,0.0
22,0.0
23,0.0
24,0.0
25,0.0
26,3616.0889200547977
27,0.0
28,0.0
29,0.0
30,0.0
31,0.0
32,0.0
33,0.0
34,59.996290786091265
35,0.0
36,0.0
37,0.0
38,0.0
39,0.0
40,10799.332341496427
41,0.0
42,0.0
43,0.0
44,0.0
45,0.0
46,0.0
47,0.0
48,17.755079661517485
288,-6.841840002557876
289,100.0
290,0.05
49,0.0
134,56121.09627530857
183,0.0
184,311.7838681961587
185,17.755079661517485
186,0.006926343026001589
187,50.92859611327171
135,56121.09627530857
213,27451.852920543748
262,59999.999999999985
2,1,12,25, 0, 1, 6.00, 9.00,Sunday
7,16.075
8,57.3
9,0.75
10,222.9
11,0.0
12,0.0
13,0.0
14,0.0
15,0.0
16,0.0
17,0.0
18,0.0
19,0.0
20,19.959727860269798
21,0.0
22,0.0
23,0.0
24,0.0
25,0.0
26,3592.7510148485635
27,0.0
28,0.0
29,0.0
30,0.0
31,0.0
32,0.0
33,0.0
34,59.606647415656205
35,0.0
36,0.0
37,0.0
38,0.0
39,0.0
40,10729.196534818117
41,0.0
42,0.0
43,0.0
44,0.0
45,0.0
46,0.0
47,0.0
48,17.845424549481894
288,-6.8042986953210844
289,100.0
290,0.05
49,0.0
134,0.0
183,0.0
184,0.0
185,17.845424549481894
186,0.006981356856042275
187,51.03190081774442
135,0.0
213,0.0
262,0.0
2,1,12,25, 0, 1, 9.00,12.00,Sunday
7,16.0
8,57.400000000000006
9,0.8
10,222.2
11,0.0
12,0.0
13,0.0
14,0.0
15,0.0
16,0.0
17,0.0
18,0.0
19,0.0
20,20.386449834926246
21,0.0
22,0.0
23,0.0
24,0.0
25,0.0
26,3669.560970286724
27,0.0
28,0.0
29,0.0
30,0.0
31,0.0
32,0.0
33,0.0
34,60.92010798668035
35,0.0
36,0.0
37,0.0
38,0.0
39,0.0
40,10965.619437602463
41,0.0
42,0.0
43,0.0
44,0.0
45,0.0
46,0.0
47,0.0
48,17.869700174860373
288,-6.796784343298772
289,100.0
290,0.05
49,0.0
134,23194.543214603706
183,0.0
184,128.858573414465
185,17.869700174860373
186,0.006948608994447054
187,50.71959749178834
135,23194.543214603706
213,0.0
262,32532.60731880459
2,1,12,25, 0, 1,12.00,15.00,Sunday
7,15.925
8,57.5
9,0.85
10,221.5
11,0.0
12,0.0
13,0.0
14,0.0
15,0.0
16,0.0
17,0.0
18,0.0
19,0.0
20,20.630809623814095
21,0.0
22,0.0
23,0.0
24,0.0
25,0.0
26,3713.5457322865373
27,0.0
28,0.0
29,0.0
30,0.0
31,0.0
32,0.0
33,0.0
34,61.625788639983284
35,0.0
36,0.0
37,0.0
38,0.0
39,0.0
40,11092.641955196992
41,0.0
42,0.0
43,0.0
44,0.0
45,0.0
46,0.0
47,0.0
48,17.732021705720506
288,-6.851904487931661
289,100.0
290,0.05
49,0.0
134,84158.7964492077
183,0.0
184,467.54886916226496
185,17.732021705720506
186,0.00698094298618432
187,51.407870827415294
135,84158.7964492077
213,24572.91610718961
262,90000.0
2,1,12,25, 0, 1,15.00,18.00,Sunday
7,15.850000000000001
8,57.599999999999994
9,0.8999999999999999
10,220.8
11,0.0
12,0.0
13,0.0
14,0.0
15,0.0
16,0.0
17,0.0
18,0.0
19,0.0
20,20.502229126729016
21,0.0
22,0.0
23,0.0
24,0.0
25,0.0
26,3690.401242811223
27,0.0
28,0.0
29,0.0
30,0.0
31,0.0
32,0.0
33,0.0
34,61.25373915483759
35,0.0
36,0.0
37,0.0
38,0.0
39,0.0
40,11025.673047870767
41,0.0
42,0.0
43,0.0
44,0.0
45,0.0
46,0.0
47,0.0
48,17.863768091497974
288,-6.799468917611276
289,100.0
290,0.05
49,0.0
134,0.0
183,0.0
184,0.0
185,17.863768091497974
186,0.007004016314031822
187,51.14294193618589
135,0.0
213,0.0
262,0.0
2,1,12,25, 0, 1,18.00,21.00,Sunday
7,15.775
8,57.7
9,0.95
10,220.1
11,0.0
12,0.0
13,0.0
14,0.0
15,0.0
16,0.0
17,0.0
18,0.0
19,0.0
20,21.028789028532753
21,0.0
22,0.0
23,0.0
24,0.0
25,0.0
26,3785.1820251358954
27,0.0
28,0.0
29,0.0
30,0.0
31,0.0
32,0.0
33,0.0
34,62.810189615044905
35,0.0
36,0.0
37,0.0
38,0.0
39,0.0
40,11305.834130708083
41,0.0
42,0.0
43,0.0
44,0.0
45,0.0
46,0.0
47,0.0
48,17.945377808166434
288,-6.767614898040229
289,100.0
290,0.05
49,0.0
134,9533.361099733751
183,0.0
184,52.96311722074306
185,17.945377808166434
186,0.006986271640406849
187,50.7558049130068
135,9533.361099733751
213,0.0
262,13340.323416305986
2,1,12,25, 0, 1,21.00,24.00,Sunday
7,15.7
8,57.8
9,1.0
10,219.4
11,0.0
12,0.0
13,0.0
14,0.0
15,0.0
16,0.0
17,0.0
18,0.0
19,0.0
20,21.398577594118155
21,0.0
22,0.0
23,0.0
24,0.0
25,0.0
26,3851.743966941268
27,0.0
28,0.0
29,0.0
30,0.0
31,0.0
32,0.0
33,0.0
34,63.92889279678383
35,0.0
36,0.0
37,0.0
38,0.0
39,0.0
40,11507.20070342109
41,0.0
42,0.0
43,0.0
44,0.0
45,0.0
46,0.0
47,0.0
48,17.599479401405556
288,-6.905347396435019
289,100.0
290,0.05
49,0.0
134,57037.88335079795
183,0.0
184,316.8771297266553
185,17.599479401405556
186,0.0070474450986042735
187,52.32604985911134
135,57037.88335079795
213,18938.42052804232
262,59999.99999999998
2,1,12,25, 0, 1,24.00,27.00,Sunday
7,15.625000000000002
8,57.900000000000006
9,1.05
10,218.7
11,0.0
12,0.0
13,0.0
14,0.0
15,0.0
16,0.0
17,0.0
18,0.0
19,0.0
20,21.210406288412106
21,0.0
22,0.0
23,0.0
24,0.0
25,0.0
26,3817.873131914179
27,0.0
28,0.0
29,0.0
30,0.0
31,0.0
32,0.0
33,0.0
34,63.386771045090654
35,0.0
36,0.0
37,0.0
38,0.0
39,0.0
40,11409.618788116317
41,0.0
42,0.0
43,0.0
44,0.0
45,0.0
46,0.0
47,0.0
48,17.62531166372704
288,-6.89549729165697
289,100.0
290,0.05
49,0.0
134,0.0
183,0.0
184,0.0
185,17.62531166372704
186,0.007078469021075476
187,52.469709303726006
135,0.0
213,0.0
262,0.0
2,1,12,25, 0, 1,27.00,30.00,Sunday
7,15.55
8,58.0
9,1.1
10,218.0
11,0.0
12,0.0
13,0.0
14,0.0
15,0.0
16,0.0
17,0.0
18,0.0
19,0.0
20,21.41426240530982
21,0.0
22,0.0
23,0.0
24,0.0
25,0.0
26,3854.567232955768
27,0.0
28,0.0
29,0.0
30,0.0
31,0.0
32,0.0
33,0.0
34,64.0563924962751
35,0.0
36,0.0
37,0.0
38,0.0
39,0.0
40,11530.150649329516
41,0.0
42,0.0
43,0.0
44,0.0
45,0.0
46,0.0
47,0.0
48,17.89051331050339
288,-6.789418137099327
289,100.0
290,0.05
49,0.0
134,0.0
183,0.0
184,0.0
185,17.89051331050339
186,0.0070749455494438585
187,51.576673763064164
135,0.0
213,0.0
262,0.0
2,1,12,25, 0, 1,30.00,33.00,Sunday
7,15.475000000000001
8,58.1
9,1.1500000000000001
10,217.3
11,0.0
12,0.0
13,0.0
14,0.0
15,0.0
16,0.0
17,0.0
18,0.0
19,0.0
20,21.885944168159824
21,0.0
22,0.0
23,0.0
24,0.0
25,0.0
26,3939.469950268768
27,0.0
28,0.0
29,0.0
30,0.0
31,0.0
32,0.0
33,0.0
34,65.4531939590479
35,0.0
36,0.0
37,0.0
38,0.0
39,0.0
40,11781.574912628621
41,0.0
42,0.0
43,0.0
44,0.0
45,0.0
46,0.0
47,0.0
48,17.850954405450253
288,-6.805768841456491
289,100.0
290,0.05
49,0.0
134,56748.08973354537
183,0.0
184,315.2671651863632
185,17.850954405450253
186,0.007079022545294037
187,51.74006563432759
135,56748.08973354537
213,15871.822457882652
262,60000.000000000015
2,1,12,25, 0, 1,33.00,36.00,Sunday
7,15.400000000000002
8,58.2
9,1.2
10,216.6
11,0.0
12,0.0
13,0.0
14,0.0
15,0.0
16,0.0
17,0.0
18,0.0
19,0.0
20,21.877436564310575
21,0.0
22,0.0
23,0.0
24,0.0
25,0.0
26,3937.9385815759033
27,0.0
28,0.0
29,0.0
30,0.0
31,0.0
32,0.0
33,0.0
34,65.4686133417135
35,0.0
36,0.0
37,0.0
38,0.0
39,0.0
40,11784.35040150843
41,0.0
42,0.0
43,0.0
44,0.0
45,0.0
46,0.0
47,0.0
48,17.937338976846235
288,-6.773115317597815
289,100.0
290,0.05
49,0.0
134,0.0
183,0.0
184,0.0
185,17.937338976846235
186,0.007068099052117184
187,51.37991214224718
135,0.0
213,0.0
262,0.0
2,1,12,25, 0, 1,36.00,39.00,Sunday
7,15.325000000000001
8,58.3
9,1.25
10,215.9
11,0.0
12,0.0
13,0.0
14,0.0
15,0.0
16,0.0
17,0.0
18,0.0
19,0.0
20,22.35401656358309
21,0.0
22,0.0
23,0.0
24,0.0
25,0.0
26,4023.7229814449565
27,0.0
28,0.0
29,0.0
30,0.0
31,0.0
32,0.0
33,0.0
34,66.87864447608679
35,0.0
36,0.0
37,0.0
38,0.0
39,0.0
40,12038.156005695622
41,0.0
42,0.0
43,0.0
44,0.0
45,0.0
46,0.0
47,0.0
48,17.73762273823339
288,-6.856624348209257
289,100.0
290,0.05
49,0.0
134,49644.259349239095
183,0.0
184,275.80144082910607
185,17.73762273823339
186,0.007033885554280802
187,51.78490018031313
135,49644.259349239095
213,0.0
262,60000.00000000001
2,1,12,25, 0, 1,39.00,42.00,Sunday
7,15.25
8,58.4
9,1.2999999999999998
10,215.2
11,0.0
12,0.0
13,0.0
14,0.0
15,0.0
16,0.0
17,0.0
18,0.0
19,0.0
20,22.208946567517614
21,0.0
22,0.0
23,0.0
24,0.0
25,0.0
26,3997.6103821531706
27,0.0
28,0.0
29,0.0
30,0.0
31,0.0
32,0.0
33,0.0
34,66.46051031087295
35,0.0
36,0.0
37,0.0
38,0.0
39,0.0
40,11962.89185595713
41,0.0
42,0.0
43,0.0
44,0.0
45,0.0
46,0.0
47,0.0
48,17.78428424611636
288,-6.84182575006103
289,100.0
290,0.05
49,0.0
134,0.0
183,0.0
184,0.0
185,17.78428424611636
186,0.007001246357615033
187,51.39662550088696
135,0.0
213,0.0
262,0.0
2,1,12,25, 0, 1,42.00,45.00,Sunday
7,15.175
8,58.5
9,1.35
10,214.5
11,0.0
12,0.0
13,0.0
14,0.0
15,0.0
16,0.0
17,0.0
18,0.0
19,0.0
20,22.613495450202795
21,0.0
22,0.0
23,0.0
24,0.0
25,0.0
26,4070.429181036503
27,0.0
28,0.0
29,0.0
30,0.0
31,0.0
32,0.0
33,0.0
34,67.71346211048196
35,0.0
36,0.0
37,0.0
38,0.0
39,0.0
40,12188.423179886751
41,0.0
42,0.0
43,0.0
44,0.0
45,0.0
46,0.0
47,0.0
48,17.975615749959516
288,-6.769247540330652
289,100.0
290,0.05
49,0.0
134,0.0
183,0.0
184,0.0
185,17.975615749959516
186,0.006974138459009322
187,50.58876222357226
135,0.0
213,0.0
262,0.0
2,1,12,25, 0, 1,45.00,48.00,Sunday
7,15.100000000000001
8,58.6
9,1.4000000000000001
10,213.8
11,0.0
12,0.0
13,0.0
14,0.0
15,0.0
16,0.0
17,0.0
18,0.0
19,0.0
20,23.027804129775102
21,0.0
22,0.0
23,0.0
24,0.0
25,0.0
26,4145.004743359518
27,0.0
28,0.0
29,0.0
30,0.0
31,0.0
32,0.0
33,0.0
34,68.94310916876772
35,0.0
36,0.0
37,0.0
38,0.0
39,0.0
40,12409.75965037819
41,0.0
42,0.0
43,0.0
44,0.0
45,0.0
46,0.0
47,0.0
48,17.707674044910664
288,-6.8767874566310905
289,100.0
290,0.05
49,0.0
134,54740.774991460356
183,0.0
184,304.1154166192242
185,17.707674044910664
186,0.006957757591958644
187,51.335825047515144
135,54740.774991460356
213,0.0
262,59999.999999999985
2,1,12,25, 0, 1,48.00,51.00,Sunday
7,15.025
8,58.7
9,1.4500000000000002
10,213.1
11,0.0
12,0.0
13,0.0
14,0.0
15,0.0
16,0.0
17,0.0
18,0.0
19,0.0
20,22.75796990916922
21,0.0
22,0.0
23,0.0
24,0.0
25,0.0
26,4096.43458365046
27,0.0
28,0.0
29,0.0
30,0.0
31,0.0
32,0.0
33,0.0
34,68.18492129746653
35,0.0
36,0.0
37,0.0
38,0.0
39,0.0
40,12273.285833543976
41,0.0
42,0.0
43,0.0
44,0.0
45,0.0
46,0.0
47,0.0
48,17.69717182195254
288,-6.884817694780291
289,100.0
290,0.05
49,0.0
134,0.0
183,0.0
184,0.0
185,17.69717182195254
186,0.0069392634845613504
187,51.23353996075325
135,0.0
213,0.0
262,0.0
2,1,12,25, 0, 1,51.00,54.00,Sunday
7,14.95
8,58.8
9,1.5000000000000002
10,212.4
11,0.0
12,0.0
13,0.0
14,0.0
15,0.0
16,0.0
17,0.0
18,0.0
19,0.0
20,23.148952028879997
21,0.0
22,0.0
23,0.0
24,0.0
25,0.0
26,4166.8113651983995
27,0.0
28,0.0
29,0.0
30,0.0
31,0.0
32,0.0
33,0.0
34,69.38181260131287
35,0.0
36,0.0
37,0.0
38,0.0
39,0.0
40,12488.726268236318
41,0.0
42,0.0
43,0.0
44,0.0
45,0.0
46,0.0
47,0.0
48,17.873241847021173
288,-6.815575032919346
289,100.0
290,0.05
49,0.0
134,0.0
183,0.0
184,0.0
185,17.873241847021173
186,0.006917481253388298
187,50.51302340397269
135,0.0
213,0.0
262,0.0
2,1,12,25, 0, 1,54.00,57.00,Sunday
7,14.875000000000002
8,58.9
9,1.55
10,211.7
11,0.0
12,0.0
13,0.0
14,0.0
15,0.0
16,0.0
17,0.0
18,0.0
19,0.0
20,23.550926544013812
21,0.0
22,0.0
23,0.0
24,0.0
25,0.0
26,4239.166777922486
27,0.0
28,0.0
29,0.0
30,0.0
31,0.0
32,0.0
33,0.0
34,70.57330985225606
35,0.0
36,0.0
37,0.0
38,0.0
39,0.0
40,12703.19577340609
41,0.0
42,0.0
43,0.0
44,0.0
45,0.0
46,0.0
47,0.0
48,17.94901447879186
288,-6.788779645640505
289,100.0
290,0.05
49,0.0
134,0.0
183,0.0
184,0.0
185,17.94901447879186
186,0.006909797215844464
187,50.21991476577927
135,0.0
213,0.0
262,0.0
2,1,12,25, 0, 1,57.00,60.00,Sunday
7,14.8
8,59.0
9,1.6
10,211.0
11,0.0
12,0.0
13,0.0
14,0.0
15,0.0
16,0.0
17,0.0
18,0.0
19,0.0
20,23.91615720962303
21,0.0
22,0.0
23,0.0
24,0.0
25,0.0
26,4304.908297732145
27,0.0
28,0.0
29,0.0
30,0.0
31,0.0
32,0.0
33,0.0
34,71.65589014118262
35,0.0
36,0.0
37,0.0
38,0.0
39,0.0
40,12898.060225412872
41,0.0
42,0.0
43,0.0
44,0.0
45,0.0
46,0.0
47,0.0
48,17.373407903712042
288,-7.017774165919478
289,100.0
290,0.05
49,0.0
134,85056.63527269295
183,0.0
184,472.53686262607187
185,17.373407903712042
186,0.006961858336395708
187,52.46863567756497
135,85056.63527269295
213,20768.618311890576
262,89999.99999999999
2,1,12,25, 0, 2, 0.00, 3.00,Sunday
7,14.75
8,59.199999999999996
9,1.645
10,210.9
11,0.0
12,0.0
13,0.0
14,0.0
15,0.0
16,0.0
17,0.0
18,0.0
19,0.0
20,23.2544719721896
21,0.0
22,0.0
23,0.0
24,0.0
25,0.0
26,4185.804954994128
27,0.0
28,0.0
29,0.0
30,0.0
31,0.0
32,0.0
33,0.0
34,69.78040404232651
35,0.0
36,0.0
37,0.0
38,0.0
39,0.0
40,12560.472727618771
41,0.0
42,0.0
43,0.0
44,0.0
45,0.0
46,0.0
47,0.0
48,17.281861997130036
288,-7.0578285555076254
289,100.0
290,0.05
49,0.0
134,0.0
183,0.0
184,0.0
185,17.281861997130036
186,0.006977793456784413
187,52.89036218226173
135,0.0
213,0.0
262,0.0
2,1,12,25, 0, 2, 3.00, 6.00,Sunday
7,14.700000000000001
8,59.400000000000006
9,1.6900000000000002
10,210.8
11,0.0
12,0.0
13,0.0
14,0.0
15,0.0
16,0.0
17,0.0
18,0.0
19,0.0
20,23.338611888001225
21,0.0
22,0.0
23,0.0
24,0.0
25,0.0
26,4200.950139840221
27,0.0
28,0.0
29,0.0
30,0.0
31,0.0
32,0.0
33,0.0
34,70.06944744245067
35,0.0
36,0.0
37,0.0
38,0.0
39,0.0
40,12612.50053964112
41,0.0
42,0.0
43,0.0
44,0.0
45,0.0
46,0.0
47,0.0
48,17.541047314627356
288,-6.955534618106923
289,100.0
290,0.05
49,0.0
134,0.0
183,0.0
184,0.0
185,17.541047314627356
186,0.006960846438455206
187,51.90579583129911
135,0.0
213,0.0
262,0.0
2,1,12,25, 0, 2, 6.00, 9.00,Sunday
7,14.65
8,59.599999999999994
9,1.735
10,210.7
11,0.0
12,0.0
13,0.0
14,0.0
15,0.0
16,0.0
17,0.0
18,0.0
19,0.0
20,23.712570332176114
21,0.0
22,0.0
23,0.0
24,0.0
25,0.0
26,4268.262659791701
27,0.0
28,0.0
29,0.0
30,0.0
31,0.0
32,0.0
33,0.0
34,71.15028055788898
35,0.0
36,0.0
37,0.0
38,0.0
39,0.0
40,12807.050500420015
41,0.0
42,0.0
43,0.0
44,0.0
45,0.0
46,0.0
47,0.0
48,17.673116692784227
288,-6.903654307157808
289,100.0
290,0.05
49,0.0
134,0.0
183,0.0
184,0.0
185,17.673116692784227
186,0.006945667462275486
187,51.36477813046659
135,0.0
213,0.0
262,0.0
2,1,12,25, 0, 2, 9.00,12.00,Sunday
7,14.600000000000001
8,59.800000000000004
9,1.7800000000000002
10,210.6
11,0.0
12,0.0
13,0.0
14,0.0
15,0.0
16,0.0
17,0.0
18,0.0
19,0.0
20,24.05861704344637
21,0.0
22,0.0
23,0.0
24,0.0
25,0.0
26,4330.551067820347
27,0.0
28,0.0
29,0.0
30,0.0
31,0.0
32,0.0
33,0.0
34,72.18469523041958
35,0.0
36,0.0
37,0.0
38,0.0
39,0.0
40,12993.245141475523
41,0.0
42,0.0
43,0.0
44,0.0
45,0.0
46,0.0
47,0.0
48,17.818939882251513
288,-6.846295438342815
289,100.0
290,0.05
49,0.0
134,0.0
183,0.0
184,0.0
185,17.818939882251513
186,0.006923598892795627
187,50.73355120442815
135,0.0
213,0.0
262,0.0
2,1,12,25, 0, 2,12.00,15.00,Sunday
7,14.55
8,60.0
9,1.8250000000000002
10,210.5
11,0.0
12,0.0
13,0.0
14,0.0
15,0.0
16,0.0
17,0.0
18,0.0
19,0.0
20,24.26874208847635
21,0.0
22,0.0
23,0.0
24,0.0
25,0.0
26,4368.373575925743
27,0.0
28,0.0
29,0.0
30,0.0
31,0.0
32,0.0
33,0.0
34,72.79183411460895
35,0.0
36,0.0
37,0.0
38,0.0
39,0.0
40,13102.53014062961
41,0.0
42,0.0
43,0.0
44,0.0
45,0.0
46,0.0
47,0.0
48,17.9565067262845
288,-6.795137053560696
289,100.0
290,0.05
49,0.0
134,0.0
183,0.0
184,0.0
185,17.9565067262845
186,0.006898256234350984
187,50.1136429588331
135,0.0
213,0.0
262,0.0
2,1,12,25, 0, 2,15.00,18.00,Sunday
7,14.5
8,60.199999999999996
9,1.8699999999999999
10,210.4
11,0.0
12,0.0
13,0.0
14,0.0
15,0.0
16,0.0
17,0.0
18,0.0
19,0.0
20,24.53978986024824
21,0.0
22,0.0
23,0.0
24,0.0
25,0.0
26,4417.162174844683
27,0.0
28,0.0
29,0.0
30,0.0
31,0.0
32,0.0
33,0.0
34,73.59852107249965
35,0.0
36,0.0
37,0.0
38,0.0
39,0.0
40,13247.733793049938
41,0.0
42,0.0
43,0.0
44,0.0
45,0.0
46,0.0
47,0.0
48,17.89619393059056
288,-6.822005529142713
289,100.0
290,0.05
49,0.0
134,36675.21154134664
183,0.0
184,203.7511752297035
185,17.89619393059056
186,0.006875450523401744
187,50.13948836069743
135,36675.21154134664
213,0.0
262,51483.80326091595
2,1,12,25, 0, 2,18.00,21.00,Sunday
7,14.450000000000001
8,60.4
9,1.915
10,210.3
11,0.0
12,0.0
13,0.0
14,0.0
15,0.0
16,0.0
17,0.0
18,0.0
19,0.0
20,24.444491770989426
21,0.0
22,0.0
23,0.0
24,0.0
25,0.0
26,4400.008518778097
27,0.0
28,0.0
29,0.0
30,0.0
31,0.0
32,0.0
33,0.0
34,73.3521792174599
35,0.0
36,0.0
37,0.0
38,0.0
39,0.0
40,13203.392259142784
41,0.0
42,0.0
43,0.0
44,0.0
45,0.0
46,0.0
47,0.0
48,17.90706673014511
288,-6.820402671388451
289,100.0
290,0.05
49,0.0
134,0.0
183,0.0
184,0.0
185,17.90706673014511
186,0.006854000171515039
187,49.95031364184273
135,0.0
213,0.0
262,0.0
2,1,12,25, 0, 2,21.00,24.00,Sunday
7,14.400000000000002
8,60.6
9,1.96
10,210.2
11,0.0
12,0.0
13,0.0
14,0.0
15,0.0
16,0.0
17,0.0
18,0.0
19,0.0
20,24.727357413474557
21,0.0
22,0.0
23,0.0
24,0.0
25,0.0
26,4450.92433442542
27,0.0
28,0.0
29,0.0
30,0.0
31,0.0
32,0.0
33,0.0
34,74.1847193844581
35,0.0
36,0.0
37,0.0
38,0.0
39,0.0
40,13353.249489202459
41,0.0
42,0.0
43,0.0
44,0.0
45,0.0
46,0.0
47,0.0
48,17.9717427558554
288,-6.795665928081737
289,100.0
290,0.05
49,0.0
134,0.0
183,0.0
184,0.0
185,17.9717427558554
186,0.006834075221113771
187,49.60407836103307
135,0.0
213,0.0
262,0.0
2,1,12,25, 0, 2,24.00,27.00,Sunday
7,14.350000000000001
8,60.800000000000004
9,2.005
10,210.1
11,0.0
12,0.0
13,0.0
14,0.0
15,0.0
16,0.0
17,0.0
18,0.0
19,0.0
20,24.933435689830937
21,0.0
22,0.0
23,0.0
24,0.0
25,0.0
26,4488.018424169569
27,0.0
28,0.0
29,0.0
30,0.0
31,0.0
32,0.0
33,0.0
34,74.78954690487468
35,0.0
36,0.0
37,0.0
38,0.0
39,0.0
40,13462.118442877443
41,0.0
42,0.0
43,0.0
44,0.0
45,0.0
46,0.0
47,0.0
48,17.892888151701698
288,-6.830378621565049
289,100.0
290,0.05
49,0.0
134,29367.318715963007
183,0.0
184,163.15177064423892
185,17.892888151701698
186,0.006812990450790882
187,49.69846646309294
135,29367.318715963007
213,0.0
262,40859.57793658505
2,1,12,25, 0, 2,27.00,30.00,Sunday
7,14.3
8,61.0
9,2.05
10,210.0
11,0.0
12,0.0
13,0.0
14,0.0
15,0.0
16,0.0
17,0.0
18,0.0
19,0.0
20,24.87575214683332
21,0.0
22,0.0
23,0.0
24,0.0
25,0.0
26,4477.635386429998
27,0.0
28,0.0
29,0.0
30,0.0
31,0.0
32,0.0
33,0.0
34,74.65659482154399
35,0.0
36,0.0
37,0.0
38,0.0
39,0.0
40,13438.187067877918
41,0.0
42,0.0
43,0.0
44,0.0
45,0.0
46,0.0
47,0.0
48,17.891563508322477
288,-6.833582169613474
289,100.0
290,0.05
49,0.0
134,0.0
183,0.0
184,0.0
185,17.891563508322477
186,0.0067949775778795496
187,49.57239261481958
135,0.0
213,0.0
262,0.0
2,1,12,25, 0, 2,30.00,33.00,Sunday
7,14.25
8,61.2
9,2.0949999999999998
10,209.9
11,0.0
12,0.0
13,0.0
14,0.0
15,0.0
16,0.0
17,0.0
18,0.0
19,0.0
20,25.08658533607591
21,0.0
22,0.0
23,0.0
24,0.0
25,0.0
26,4515.585360493664
27,0.0
28,0.0
29,0.0
30,0.0
31,0.0
32,0.0
33,0.0
34,75.27745996988165
35,0.0
36,0.0
37,0.0
38,0.0
39,0.0
40,13549.942794578696
41,0.0
42,0.0
43,0.0
44,0.0
45,0.0
46,0.0
47,0.0
48,17.944271880979187
288,-6.813762982340938
289,100.0
290,0.05
49,0.0
134,0.0
183,0.0
184,0.0
185,17.944271880979187
186,0.00677997158655246
187,49.299983502916675
135,0.0
213,0.0
262,0.0
2,1,12,25, 0, 2,33.00,36.00,Sunday
7,14.2
8,61.4
9,2.14
10,209.8
11,0.0
12,0.0
13,0.0
14,0.0
15,0.0
16,0.0
17,0.0
18,0.0
19,0.0
20,25.27559766530238
21,0.0
22,0.0
23,0.0
24,0.0
25,0.0
26,4549.607579754429
27,0.0
28,0.0
29,0.0
30,0.0
31,0.0
32,0.0
33,0.0
34,75.83764913586165
35,0.0
36,0.0
37,0.0
38,0.0
39,0.0
40,13650.776844455098
41,0.0
42,0.0
43,0.0
44,0.0
45,0.0
46,0.0
47,0.0
48,17.997756106720225
288,-6.793497589329064
289,100.0
290,0.05
49,0.0
134,0.0
183,0.0
184,0.0
185,17.997756106720225
186,0.006767043186254912
187,49.04139492303665
135,0.0
213,0.0
262,0.0
2,1,12,25, 0, 2,36.00,39.00,Sunday
7,14.15
8,61.6
9,2.185
10,209.7
11,0.0
12,0.0
13,0.0
14,0.0
15,0.0
16,0.0
17,0.0
18,0.0
19,0.0
20,25.466109496320865
21,0.0
22,0.0
23,0.0
24,0.0
25,0.0
26,4583.899709337756
27,0.0
28,0.0
29,0.0
30,0.0
31,0.0
32,0.0
33,0.0
34,76.40308823852965
35,0.0
36,0.0
37,0.0
38,0.0
39,0.0
40,13752.555882935336
41,0.0
42,0.0
43,0.0
44,0.0
45,0.0
46,0.0
47,0.0
48,17.96844540782348
288,-6.80708036860185
289,100.0
290,0.05
49,0.0
134,8141.572414640059
183,0.0
184,45.230957859111435
185,17.96844540782348
186,0.00675992491591441
187,49.080513416354194
135,8141.572414640059
213,0.0
262,11171.240935865962
2,1,12,25, 0, 2,39.00,42.00,Sunday
7,14.100000000000001
8,61.8
9,2.23
10,209.6
11,0.0
12,0.0
13,0.0
14,0.0
15,0.0
16,0.0
17,0.0
18,0.0
19,0.0
20,25.537430113004284
21,0.0
22,0.0
23,0.0
24,0.0
25,0.0
26,4596.737420340771
27,0.0
28,0.0
29,0.0
30,0.0
31,0.0
32,0.0
33,0.0
34,76.63482049811263
35,0.0
36,0.0
37,0.0
38,0.0
39,0.0
40,13794.267689660273
41,0.0
42,0.0
43,0.0
44,0.0
45,0.0
46,0.0
47,0.0
48,17.958750191629406
288,-6.812898980117535
289,100.0
290,0.05
49,0.0
134,0.0
183,0.0
184,0.0
185,17.958750191629406
186,0.006751933476599756
187,49.052794791233076
135,0.0
213,0.0
262,0.0
2,1,12,25, 0, 2,42.00,45.00,Sunday
7,14.05
8,62.0
9,2.275
10,209.5
11,0.0
12,0.0
13,0.0
14,0.0
15,0.0
16,0.0
17,0.0
18,0.0
19,0.0
20,25.676833297304643
21,0.0
22,0.0
23,0.0
24,0.0
25,0.0
26,4621.829993514836
27,0.0
28,0.0
29,0.0
30,0.0
31,0.0
32,0.0
33,0.0
34,77.05485630708435
35,0.0
36,0.0
37,0.0
38,0.0
39,0.0
40,13869.874135275182
41,0.0
42,0.0
43,0.0
44,0.0
45,0.0
46,0.0
47,0.0
48,17.96874900439848
288,-6.810552054580157
289,100.0
290,0.05
49,0.0
134,0.0
183,0.0
184,0.0
185,17.96874900439848
186,0.0067428295173093825
187,48.95629099441755
135,0.0
213,0.0
262,0.0
2,1,12,25, 0, 2,45.00,48.00,Sunday
7,14.0
8,62.2
9,2.32
10,209.4
11,0.0
12,0.0
13,0.0
14,0.0
15,0.0
16,0.0
17,0.0
18,0.0
19,0.0
20,25.817699990067943
21,0.0
22,0.0
23,0.0
24,0.0
25,0.0
26,4647.18599821223
27,0.0
28,0.0
29,0.0
30,0.0
31,0.0
32,0.0
33,0.0
34,77.47798441113538
35,0.0
36,0.0
37,0.0
38,0.0
39,0.0
40,13946.037194004368
41,0.0
42,0.0
43,0.0
44,0.0
45,0.0
46,0.0
47,0.0
48,17.979788230280672
288,-6.8077877717338655
289,100.0
290,0.05
49,0.0
134,0.0
183,0.0
184,0.0
185,17.979788230280672
186,0.006733674613578814
187,48.85632314822704
135,0.0
213,0.0
262,0.0
2,1,12,25, 0, 2,48.00,51.00,Sunday
7,13.950000000000001
8,62.4
9,2.365
10,209.3
11,0.0
12,0.0
13,0.0
14,0.0
15,0.0
16,0.0
17,0.0
18,0.0
19,0.0
20,25.960517347820893
21,0.0
22,0.0
23,0.0
24,0.0
25,0.0
26,4672.893122607761
27,0.0
28,0.0
29,0.0
30,0.0
31,0.0
32,0.0
33,0.0
34,77.90615568950467
35,0.0
36,0.0
37,0.0
38,0.0
39,0.0
40,14023.108024110841
41,0.0
42,0.0
43,0.0
44,0.0
45,0.0
46,0.0
47,0.0
48,17.98191431060226
288,-6.80867480268609
289,100.0
290,0.05
49,0.0
134,0.0
183,0.0
184,0.0
185,17.98191431060226
186,0.006725149020391226
187,48.78834171780178
135,0.0
213,0.0
262,0.0
2,1,12,25, 0, 2,51.00,54.00,Sunday
7,13.900000000000002
8,62.6
9,2.41
10,209.2
11,0.0
12,0.0
13,0.0
14,0.0
15,0.0
16,0.0
17,0.0
18,0.0
19,0.0
20,26.093914543189843
21,0.0
22,0.0
23,0.0
24,0.0
25,0.0
26,4696.904617774172
27,0.0
28,0.0
29,0.0
30,0.0
31,0.0
32,0.0
33,0.0
34,78.30714887320757
35,0.0
36,0.0
37,0.0
38,0.0
39,0.0
40,14095.286797177361
41,0.0
42,0.0
43,0.0
44,0.0
45,0.0
46,0.0
47,0.0
48,17.974679593107446
288,-6.813418357088303
289,100.0
290,0.05
49,0.0
134,0.0
183,0.0
184,0.0
185,17.974679593107446
186,0.006717443238710811
187,48.75496646234275
135,0.0
213,0.0
262,0.0
2,1,12,25, 0, 2,54.00,57.00,Sunday
7,13.85
8,62.8
9,2.455
10,209.1
11,0.0
12,0.0
13,0.0
14,0.0
15,0.0
16,0.0
17,0.0
18,0.0
19,0.0
20,26.21651568425566
21,0.0
22,0.0
23,0.0
24,0.0
25,0.0
26,4718.972823166019
27,0.0
28,0.0
29,0.0
30,0.0
31,0.0
32,0.0
33,0.0
34,78.67715524342513
35,0.0
36,0.0
37,0.0
38,0.0
39,0.0
40,14161.887943816524
41,0.0
42,0.0
43,0.0
44,0.0
45,0.0
46,0.0
47,0.0
48,17.96137652132771
288,-6.82067224765887
289,100.0
290,0.05
49,0.0
134,0.0
183,0.0
184,0.0
185,17.96137652132771
186,0.00671050809588314
187,48.74569817984925
135,0.0
213,0.0
262,0.0
2,1,12,25, 0, 2,57.00,60.00,Sunday
7,13.8
8,63.0
9,2.5
10,209.0
11,0.0
12,0.0
13,0.0
14,0.0
15,0.0
16,0.0
17,0.0
18,0.0
19,0.0
20,26.331879884216594
21,0.0
22,0.0
23,0.0
24,0.0
25,0.0
26,4739.738379158987
27,0.0
28,0.0
29,0.0
30,0.0
31,0.0
32,0.0
33,0.0
34,79.02625389891219
35,0.0
36,0.0
37,0.0
38,0.0
39,0.0
40,14224.725701804195
41,0.0
42,0.0
43,0.0
44,0.0
45,0.0
46,0.0
47,0.0
48,17.94509770518204
288,-6.8291649842389175
289,100.0
290,0.05
49,0.0
134,0.0
183,0.0
184,0.0
185,17.94509770518204
186,0.006704236785934938
187,48.7502900637297
135,0.0
213,0.0
262,0.0
2,1,12,25, 0, 3, 0.00, 3.00,Sunday
7,13.754999999999999
8,63.099999999999994
9,2.49
10,206.7
11,0.0
12,0.0
13,0.0
14,0.0
15,0.0
16,0.0
17,0.0
18,0.0
19,0.0
20,26.424997250154004
21,0.0
22,0.0
23,0.0
24,0.0
25,0.0
26,4756.49950502772
27,0.0
28,0.0
29,0.0
30,0.0
31,0.0
32,0.0
33,0.0
34,79.31482571096134
35,0.0
36,0.0
37,0.0
38,0.0
39,0.0
40,14276.668627973042
41,0.0
42,0.0
43,0.0
44,0.0
45,0.0
46,0.0
47,0.0
48,17.92784967264194
288,-6.838080401224134
289,100.0
290,0.05
49,0.0
134,0.0
183,0.0
184,0.0
185,17.92784967264194
186,0.0066980917578334425
187,48.758729223935795
135,0.0
213,0.0
262,0.0
2,1,12,25, 0, 3, 3.00, 6.00,Sunday
7,13.71
8,63.2
9,2.48
10,204.4
11,0.0
12,0.0
13,0.0
14,0.0
15,0.0
16,0.0
17,0.0
18,0.0
19,0.0