Program Version,EnergyPlus, Version 22.1.0-ed759b17ee, YMD=2022.04.29 12:51
1,5,Environment Title[],Latitude[deg],Longitude[deg],Time Zone[],Elevation[m]
2,8,Day of Simulation[],Month[],Day of Month[],DST Indicator[1=yes 0=no],Hour[],StartMinute[],EndMinute[],DayType
3,5,Cumulative Day of Simulation[],Month[],Day of Month[],DST Indicator[1=yes 0=no],DayType  ! When Daily Report Variables Requested
4,2,Cumulative Days of Simulation[],Month[]  ! When Monthly Report Variables Requested
5,1,Cumulative Days of Simulation[] ! When Run Period Report Variables Requested
6,1,Calendar Year of Simulation[] ! When Annual Report Variables Requested
7,1,Environment,Site Outdoor Air Drybulb Temperature [C] !TimeStep
8,1,Environment,Site Outdoor Air Relative Humidity [%] !TimeStep
9,1,Environment,Site Wind Speed [m/s] !TimeStep
10,1,Environment,Site Wind Direction [deg] !TimeStep
11,1,MURO_ESTE,Surface Outside Face Incident Solar Radiation Rate per Area [W/m2] !TimeStep
12,1,MURO_NORTE,Surface Outside Face Incident Solar Radiation Rate per Area [W/m2] !TimeStep
13,1,MURO_OESTE,Surface Outside Face Incident Solar Radiation Rate per Area [W/m2] !TimeStep
14,1,MURO_SUR,Surface Outside Face Incident Solar Radiation Rate per Area [W/m2] !TimeStep
15,1,TECHO,Surface Outside Face Incident Solar Radiation Rate per Area [W/m2] !TimeStep
16,1,ZN001:WALL002:WIN001,Surface Outside Face Incident Solar Radiation Rate per Area [W/m2] !TimeStep
17,1,ZN001:WALL002:WIN001,Surface Window Total Glazing Layers Absorbed Solar Radiation Rate [W] !TimeStep
18,1,ZN001:WALL002:WIN001,Surface Window Transmitted Solar Radiation Rate [W] !TimeStep
19,1,ZN001:WALL002:WIN001,Surface Window Heat Gain Rate [W] !TimeStep
20,1,ZN001:WALL002:WIN001,Surface Window Heat Loss Rate [W] !TimeStep
21,1,ZN001:WALL002:WIN001,Surface Window Shading Device Absorbed Solar Radiation Rate [W] !TimeStep
22,1,ZN001:WALL002:WIN001,Surface Window Transmitted Solar Radiation Energy [J] !TimeStep
23,1,ZN001:WALL002:WIN001,Surface Window Transmitted Beam Solar Radiation Energy [J] !TimeStep
24,1,ZN001:WALL002:WIN001,Surface Window Transmitted Diffuse Solar Radiation Energy [J] !TimeStep
25,1,ZN001:WALL002:WIN001,Surface Window Heat Gain Energy [J] !TimeStep
26,1,ZN001:WALL002:WIN001,Surface Window Heat Loss Energy [J] !TimeStep
27,1,ZN001:WALL002:WIN001,Surface Window System Solar Transmittance [] !TimeStep
28,1,ZN001:WALL002:WIN001,Surface Window System Solar Reflectance [] !TimeStep
29,1,ZN001:WALL002:WIN001,Surface Window System Solar Absorptance [] !TimeStep
30,1,ZN001:WALL001:WIN001,Surface Outside Face Incident Solar Radiation Rate per Area [W/m2] !TimeStep
31,1,ZN001:WALL001:WIN001,Surface Window Total Glazing Layers Absorbed Solar Radiation Rate [W] !TimeStep
32,1,ZN001:WALL001:WIN001,Surface Window Transmitted Solar Radiation Rate [W] !TimeStep
33,1,ZN001:WALL001:WIN001,Surface Window Heat Gain Rate [W] !TimeStep
34,1,ZN001:WALL001:WIN001,Surface Window Heat Loss Rate [W] !TimeStep
35,1,ZN001:WALL001:WIN001,Surface Window Shading Device Absorbed Solar Radiation Rate [W] !TimeStep
36,1,ZN001:WALL001:WIN001,Surface Window Transmitted Solar Radiation Energy [J] !TimeStep
37,1,ZN001:WALL001:WIN001,Surface Window Transmitted Beam Solar Radiation Energy [J] !TimeStep
38,1,ZN001:WALL001:WIN001,Surface Window Transmitted Diffuse Solar Radiation Energy [J] !TimeStep
39,1,ZN001:WALL001:WIN001,Surface Window Heat Gain Energy [J] !TimeStep
40,1,ZN001:WALL001:WIN001,Surface Window Heat Loss Energy [J] !TimeStep
41,1,ZN001:WALL001:WIN001,Surface Window System Solar Transmittance [] !TimeStep
42,1,ZN001:WALL001:WIN001,Surface Window System Solar Reflectance [] !TimeStep
43,1,ZN001:WALL001:WIN001,Surface Window System Solar Absorptance [] !TimeStep
44,1,ZN001:WALL002:WIN001,Surface Shading Device Is On Time Fraction [] !TimeStep
45,1,ZN001:WALL002:WIN001,Surface Window Blind Slat Angle [deg] !TimeStep
46,1,ZN001:WALL001:WIN001,Surface Shading Device Is On Time Fraction [] !TimeStep
47,1,ZN001:WALL001:WIN001,Surface Window Blind Slat Angle [deg] !TimeStep
48,1,THERMAL ZONE: MODELO_SIMPLE,Zone Mean Air Temperature [C] !TimeStep
49,1,THERMAL ZONE: MODELO_SIMPLE,Zone Air System Sensible Heating Energy [J] !TimeStep
134,1,THERMAL ZONE: MODELO_SIMPLE,Zone Air System Sensible Cooling Energy [J] !TimeStep
183,1,THERMAL ZONE: MODELO_SIMPLE,Zone Air System Sensible Heating Rate [W] !TimeStep
184,1,THERMAL ZONE: MODELO_SIMPLE,Zone Air System Sensible Cooling Rate [W] !TimeStep
185,1,THERMAL ZONE: MODELO_SIMPLE,Zone Air Temperature [C] !TimeStep
186,1,THERMAL ZONE: MODELO_SIMPLE,Zone Air Humidity Ratio [] !TimeStep
187,1,THERMAL ZONE: MODELO_SIMPLE,Zone Air Relative Humidity [%] !TimeStep
288,1,THERMAL ZONE: MODELO_SIMPLE,Zone Thermal Comfort ASHRAE 55 Simple Model Summer or Winter Clothes Not Comfortable Time [hr] !TimeStep
213,1,Heating:DistrictHeating [J] !TimeStep
262,1,Cooling:DistrictCooling [J] !TimeStep
135,1,Cooling:EnergyTransfer [J] !TimeStep
End of Data Dictionary
1,DDMM, -32.90, -68.87,  -3.00, 676.00
2,1,12,25, 0, 1, 0.00, 3.00,Sunday
7,16.224999999999998
8,57.1
9,0.6499999999999999
10,224.3
11,0.0
12,0.0
13,0.0
14,0.0
15,0.0
16,0.0
17,0.0
18,0.0
19,0.0
20,22.361587367848315
21,0.0
22,0.0
23,0.0
24,0.0
25,0.0
26,4025.085726212697
27,0.0
28,0.0
29,0.0
30,0.0
31,0.0
32,0.0
33,0.0
34,66.71362646545072
35,0.0
36,0.0
37,0.0
38,0.0
39,0.0
40,12008.45276378113
41,0.0
42,0.0
43,0.0
44,0.0
45,0.0
46,0.0
47,0.0
48,19.305928181866296
288,0.05
49,0.0
134,0.0
183,0.0
184,0.0
185,19.305928181866296
186,0.0071391665743272695
187,47.60778287271598
135,0.0
213,0.0
262,0.0
2,1,12,25, 0, 1, 3.00, 6.00,Sunday
7,16.150000000000002
8,57.2
9,0.7000000000000001
10,223.6
11,0.0
12,0.0
13,0.0
14,0.0
15,0.0
16,0.0
17,0.0
18,0.0
19,0.0
20,22.539526473402027
21,0.0
22,0.0
23,0.0
24,0.0
25,0.0
26,4057.114765212365
27,0.0
28,0.0
29,0.0
30,0.0
31,0.0
32,0.0
33,0.0
34,67.26270118219163
35,0.0
36,0.0
37,0.0
38,0.0
39,0.0
40,12107.286212794494
41,0.0
42,0.0
43,0.0
44,0.0
45,0.0
46,0.0
47,0.0
48,19.282054503309805
288,0.05
49,0.0
134,0.0
183,0.0
184,0.0
185,19.282054503309805
186,0.0071445850275289975
187,47.716380092966716
135,0.0
213,0.0
262,0.0
2,1,12,25, 0, 1, 6.00, 9.00,Sunday
7,16.075
8,57.3
9,0.75
10,222.9
11,0.0
12,0.0
13,0.0
14,0.0
15,0.0
16,0.0
17,0.0
18,0.0
19,0.0
20,22.715261520708047
21,0.0
22,0.0
23,0.0
24,0.0
25,0.0
26,4088.7470737274484
27,0.0
28,0.0
29,0.0
30,0.0
31,0.0
32,0.0
33,0.0
34,67.80851865279351
35,0.0
36,0.0
37,0.0
38,0.0
39,0.0
40,12205.53335750283
41,0.0
42,0.0
43,0.0
44,0.0
45,0.0
46,0.0
47,0.0
48,19.257153856432986
288,0.05
49,0.0
134,0.0
183,0.0
184,0.0
185,19.257153856432986
186,0.0071472413953915315
187,47.8100045881044
135,0.0
213,0.0
262,0.0
2,1,12,25, 0, 1, 9.00,12.00,Sunday
7,16.0
8,57.400000000000006
9,0.8
10,222.2
11,0.0
12,0.0
13,0.0
14,0.0
15,0.0
16,0.0
17,0.0
18,0.0
19,0.0
20,22.888773493326656
21,0.0
22,0.0
23,0.0
24,0.0
25,0.0
26,4119.979228798798
27,0.0
28,0.0
29,0.0
30,0.0
31,0.0
32,0.0
33,0.0
34,68.35167448844726
35,0.0
36,0.0
37,0.0
38,0.0
39,0.0
40,12303.301407920506
41,0.0
42,0.0
43,0.0
44,0.0
45,0.0
46,0.0
47,0.0
48,19.231563901635038
288,0.05
49,0.0
134,0.0
183,0.0
184,0.0
185,19.231563901635038
186,0.007147359440336438
187,47.88906456272431
135,0.0
213,0.0
262,0.0
2,1,12,25, 0, 1,12.00,15.00,Sunday
7,15.925
8,57.5
9,0.85
10,221.5
11,0.0
12,0.0
13,0.0
14,0.0
15,0.0
16,0.0
17,0.0
18,0.0
19,0.0
20,23.060786499052373
21,0.0
22,0.0
23,0.0
24,0.0
25,0.0
26,4150.941569829427
27,0.0
28,0.0
29,0.0
30,0.0
31,0.0
32,0.0
33,0.0
34,68.89102605719388
35,0.0
36,0.0
37,0.0
38,0.0
39,0.0
40,12400.384690294899
41,0.0
42,0.0
43,0.0
44,0.0
45,0.0
46,0.0
47,0.0
48,19.205554497377175
288,0.05
49,0.0
134,0.0
183,0.0
184,0.0
185,19.205554497377175
186,0.007145229775503201
187,47.95461093193261
135,0.0
213,0.0
262,0.0
2,1,12,25, 0, 1,15.00,18.00,Sunday
7,15.850000000000001
8,57.599999999999994
9,0.8999999999999999
10,220.8
11,0.0
12,0.0
13,0.0
14,0.0
15,0.0
16,0.0
17,0.0
18,0.0
19,0.0
20,23.235663108015963
21,0.0
22,0.0
23,0.0
24,0.0
25,0.0
26,4182.419359442873
27,0.0
28,0.0
29,0.0
30,0.0
31,0.0
32,0.0
33,0.0
34,69.43430802599354
35,0.0
36,0.0
37,0.0
38,0.0
39,0.0
40,12498.175444678838
41,0.0
42,0.0
43,0.0
44,0.0
45,0.0
46,0.0
47,0.0
48,19.17927884651373
288,0.05
49,0.0
134,0.0
183,0.0
184,0.0
185,19.17927884651373
186,0.007141107132656899
187,48.00780870464163
135,0.0
213,0.0
262,0.0
2,1,12,25, 0, 1,18.00,21.00,Sunday
7,15.775
8,57.7
9,0.95
10,220.1
11,0.0
12,0.0
13,0.0
14,0.0
15,0.0
16,0.0
17,0.0
18,0.0
19,0.0
20,23.412590221944207
21,0.0
22,0.0
23,0.0
24,0.0
25,0.0
26,4214.266239949957
27,0.0
28,0.0
29,0.0
30,0.0
31,0.0
32,0.0
33,0.0
34,69.98327969626465
35,0.0
36,0.0
37,0.0
38,0.0
39,0.0
40,12596.990345327637
41,0.0
42,0.0
43,0.0
44,0.0
45,0.0
46,0.0
47,0.0
48,19.152808743240854
288,0.05
49,0.0
134,0.0
183,0.0
184,0.0
185,19.152808743240854
186,0.0071352000814660825
187,48.04976820029273
135,0.0
213,0.0
262,0.0
2,1,12,25, 0, 1,21.00,24.00,Sunday
7,15.7
8,57.8
9,1.0
10,219.4
11,0.0
12,0.0
13,0.0
14,0.0
15,0.0
16,0.0
17,0.0
18,0.0
19,0.0
20,23.591282947559474
21,0.0
22,0.0
23,0.0
24,0.0
25,0.0
26,4246.430930560706
27,0.0
28,0.0
29,0.0
30,0.0
31,0.0
32,0.0
33,0.0
34,70.5372181208424
35,0.0
36,0.0
37,0.0
38,0.0
39,0.0
40,12696.699261751632
41,0.0
42,0.0
43,0.0
44,0.0
45,0.0
46,0.0
47,0.0
48,19.12617552228667
288,0.05
49,0.0
134,0.0
183,0.0
184,0.0
185,19.12617552228667
186,0.007127684841759107
187,48.081511226765265
135,0.0
213,0.0
262,0.0
2,1,12,25, 0, 1,24.00,27.00,Sunday
7,15.625000000000002
8,57.900000000000006
9,1.05
10,218.7
11,0.0
12,0.0
13,0.0
14,0.0
15,0.0
16,0.0
17,0.0
18,0.0
19,0.0
20,23.771425488029877
21,0.0
22,0.0
23,0.0
24,0.0
25,0.0
26,4278.856587845377
27,0.0
28,0.0
29,0.0
30,0.0
31,0.0
32,0.0
33,0.0
34,71.09521117658576
35,0.0
36,0.0
37,0.0
38,0.0
39,0.0
40,12797.138011785437
41,0.0
42,0.0
43,0.0
44,0.0
45,0.0
46,0.0
47,0.0
48,19.099397181058084
288,0.05
49,0.0
134,0.0
183,0.0
184,0.0
185,19.099397181058084
186,0.007118716966131934
187,48.10396825943017
135,0.0
213,0.0
262,0.0
2,1,12,25, 0, 1,27.00,30.00,Sunday
7,15.55
8,58.0
9,1.1
10,218.0
11,0.0
12,0.0
13,0.0
14,0.0
15,0.0
16,0.0
17,0.0
18,0.0
19,0.0
20,23.952964018722334
21,0.0
22,0.0
23,0.0
24,0.0
25,0.0
26,4311.53352337002
27,0.0
28,0.0
29,0.0
30,0.0
31,0.0
32,0.0
33,0.0
34,71.65712672689929
35,0.0
36,0.0
37,0.0
38,0.0
39,0.0
40,12898.282810841873
41,0.0
42,0.0
43,0.0
44,0.0
45,0.0
46,0.0
47,0.0
48,19.07248606225808
288,0.05
49,0.0
134,0.0
183,0.0
184,0.0
185,19.07248606225808
186,0.007108437056322384
187,48.11799307043953
135,0.0
213,0.0
262,0.0
2,1,12,25, 0, 1,30.00,33.00,Sunday
7,15.475000000000001
8,58.1
9,1.1500000000000001
10,217.3
11,0.0
12,0.0
13,0.0
14,0.0
15,0.0
16,0.0
17,0.0
18,0.0
19,0.0
20,24.13569697816082
21,0.0
22,0.0
23,0.0
24,0.0
25,0.0
26,4344.425456068948
27,0.0
28,0.0
29,0.0
30,0.0
31,0.0
32,0.0
33,0.0
34,72.22234442959989
35,0.0
36,0.0
37,0.0
38,0.0
39,0.0
40,13000.02199732798
41,0.0
42,0.0
43,0.0
44,0.0
45,0.0
46,0.0
47,0.0
48,19.04545282027179
288,0.05
49,0.0
134,0.0
183,0.0
184,0.0
185,19.04545282027179
186,0.007096972996609241
187,48.12436851783714
135,0.0
213,0.0
262,0.0
2,1,12,25, 0, 1,33.00,36.00,Sunday
7,15.400000000000002
8,58.2
9,1.2
10,216.6
11,0.0
12,0.0
13,0.0
14,0.0
15,0.0
16,0.0
17,0.0
18,0.0
19,0.0
20,24.3196364663051
21,0.0
22,0.0
23,0.0
24,0.0
25,0.0
26,4377.534563934918
27,0.0
28,0.0
29,0.0
30,0.0
31,0.0
32,0.0
33,0.0
34,72.7908988795314
35,0.0
36,0.0
37,0.0
38,0.0
39,0.0
40,13102.361798315651
41,0.0
42,0.0
43,0.0
44,0.0
45,0.0
46,0.0
47,0.0
48,19.018304591022822
288,0.05
49,0.0
134,0.0
183,0.0
184,0.0
185,19.018304591022822
186,0.007084440927869346
187,48.1238068092037
135,0.0
213,0.0
262,0.0
2,1,12,25, 0, 1,36.00,39.00,Sunday
7,15.325000000000001
8,58.3
9,1.25
10,215.9
11,0.0
12,0.0
13,0.0
14,0.0
15,0.0
16,0.0
17,0.0
18,0.0
19,0.0
20,24.504625533696142
21,0.0
22,0.0
23,0.0
24,0.0
25,0.0
26,4410.832596065306
27,0.0
28,0.0
29,0.0
30,0.0
31,0.0
32,0.0
33,0.0
34,73.3622854166008
35,0.0
36,0.0
37,0.0
38,0.0
39,0.0
40,13205.211374988143
41,0.0
42,0.0
43,0.0
44,0.0
45,0.0
46,0.0
47,0.0
48,18.991047064703782
288,0.05
49,0.0
134,0.0
183,0.0
184,0.0
185,18.991047064703782
186,0.00707094609785072
187,48.11696041009922
135,0.0
213,0.0
262,0.0
2,1,12,25, 0, 1,39.00,42.00,Sunday
7,15.25
8,58.4
9,1.2999999999999998
10,215.2
11,0.0
12,0.0
13,0.0
14,0.0
15,0.0
16,0.0
17,0.0
18,0.0
19,0.0
20,24.69070194066775
21,0.0
22,0.0
23,0.0
24,0.0
25,0.0
26,4444.326349320195
27,0.0
28,0.0
29,0.0
30,0.0
31,0.0
32,0.0
33,0.0
34,73.93660655747725
35,0.0
36,0.0
37,0.0
38,0.0
39,0.0
40,13308.589180345905
41,0.0
42,0.0
43,0.0
44,0.0
45,0.0
46,0.0
47,0.0
48,18.963683060631784
288,0.05
49,0.0
134,0.0
183,0.0
184,0.0
185,18.963683060631784
186,0.007056583736088581
187,48.10443314727273
135,0.0
213,0.0
262,0.0
2,1,12,25, 0, 1,42.00,45.00,Sunday
7,15.175
8,58.5
9,1.35
10,214.5
11,0.0
12,0.0
13,0.0
14,0.0
15,0.0
16,0.0
17,0.0
18,0.0
19,0.0
20,24.877729296999618
21,0.0
22,0.0
23,0.0
24,0.0
25,0.0
26,4477.991273459931
27,0.0
28,0.0
29,0.0
30,0.0
31,0.0
32,0.0
33,0.0
34,74.51341472239848
35,0.0
36,0.0
37,0.0
38,0.0
39,0.0
40,13412.414650031726
41,0.0
42,0.0
43,0.0
44,0.0
45,0.0
46,0.0
47,0.0
48,18.936214997523784
288,0.05
49,0.0
134,0.0
183,0.0
184,0.0
185,18.936214997523784
186,0.007041439950790363
187,48.08675997655644
135,0.0
213,0.0
262,0.0
2,1,12,25, 0, 1,45.00,48.00,Sunday
7,15.100000000000001
8,58.6
9,1.4000000000000001
10,213.8
11,0.0
12,0.0
13,0.0
14,0.0
15,0.0
16,0.0
17,0.0
18,0.0
19,0.0
20,25.065757331528594
21,0.0
22,0.0
23,0.0
24,0.0
25,0.0
26,4511.836319675147
27,0.0
28,0.0
29,0.0
30,0.0
31,0.0
32,0.0
33,0.0
34,75.09284703612845
35,0.0
36,0.0
37,0.0
38,0.0
39,0.0
40,13516.71246650312
41,0.0
42,0.0
43,0.0
44,0.0
45,0.0
46,0.0
47,0.0
48,18.908643398123726
288,0.05
49,0.0
134,0.0
183,0.0
184,0.0
185,18.908643398123726
186,0.007025592625260275
187,48.06444121961706
135,0.0
213,0.0
262,0.0
2,1,12,25, 0, 1,48.00,51.00,Sunday
7,15.025
8,58.7
9,1.4500000000000002
10,213.1
11,0.0
12,0.0
13,0.0
14,0.0
15,0.0
16,0.0
17,0.0
18,0.0
19,0.0
20,25.254661909380367
21,0.0
22,0.0
23,0.0
24,0.0
25,0.0
26,4545.839143688466
27,0.0
28,0.0
29,0.0
30,0.0
31,0.0
32,0.0
33,0.0
34,75.67449282690528
35,0.0
36,0.0
37,0.0
38,0.0
39,0.0
40,13621.40870884295
41,0.0
42,0.0
43,0.0
44,0.0
45,0.0
46,0.0
47,0.0
48,18.88096906900865
288,0.05
49,0.0
134,0.0
183,0.0
184,0.0
185,18.88096906900865
186,0.007009112184564644
187,48.03792154392858
135,0.0
213,0.0
262,0.0
2,1,12,25, 0, 1,51.00,54.00,Sunday
7,14.95
8,58.8
9,1.5000000000000002
10,212.4
11,0.0
12,0.0
13,0.0
14,0.0
15,0.0
16,0.0
17,0.0
18,0.0
19,0.0
20,25.444499535761874
21,0.0
22,0.0
23,0.0
24,0.0
25,0.0
26,4580.009916437138
27,0.0
28,0.0
29,0.0
30,0.0
31,0.0
32,0.0
33,0.0
34,76.25851092667963
35,0.0
36,0.0
37,0.0
38,0.0
39,0.0
40,13726.531966802335
41,0.0
42,0.0
43,0.0
44,0.0
45,0.0
46,0.0
47,0.0
48,18.85319130535056
288,0.05
49,0.0
134,0.0
183,0.0
184,0.0
185,18.85319130535056
186,0.0069920623355127515
187,48.00761749163427
135,0.0
213,0.0
262,0.0
2,1,12,25, 0, 1,54.00,57.00,Sunday
7,14.875000000000002
8,58.9
9,1.55
10,211.7
11,0.0
12,0.0
13,0.0
14,0.0
15,0.0
16,0.0
17,0.0
18,0.0
19,0.0
20,25.63515429304
21,0.0
22,0.0
23,0.0
24,0.0
25,0.0
26,4614.3277727472
27,0.0
28,0.0
29,0.0
30,0.0
31,0.0
32,0.0
33,0.0
34,76.84451721202768
35,0.0
36,0.0
37,0.0
38,0.0
39,0.0
40,13832.013098164984
41,0.0
42,0.0
43,0.0
44,0.0
45,0.0
46,0.0
47,0.0
48,18.82530986912476
288,0.05
49,0.0
134,0.0
183,0.0
184,0.0
185,18.82530986912476
186,0.006974500695025132
187,47.973889899305064
135,0.0
213,0.0
262,0.0
2,1,12,25, 0, 1,57.00,60.00,Sunday
7,14.8
8,59.0
9,1.6
10,211.0
11,0.0
12,0.0
13,0.0
14,0.0
15,0.0
16,0.0
17,0.0
18,0.0
19,0.0
20,25.82668650551942
21,0.0
22,0.0
23,0.0
24,0.0
25,0.0
26,4648.803570993496
27,0.0
28,0.0
29,0.0
30,0.0
31,0.0
32,0.0
33,0.0
34,77.43268429766866
35,0.0
36,0.0
37,0.0
38,0.0
39,0.0
40,13937.883173580358
41,0.0
42,0.0
43,0.0
44,0.0
45,0.0
46,0.0
47,0.0
48,18.79732306757566
288,0.05
49,0.0
134,0.0
183,0.0
184,0.0
185,18.79732306757566
186,0.006956479359372264
187,47.93708750173668
135,0.0
213,0.0
262,0.0
2,1,12,25, 0, 2, 0.00, 3.00,Sunday
7,14.75
8,59.199999999999996
9,1.645
10,210.9
11,0.0
12,0.0
13,0.0
14,0.0
15,0.0
16,0.0
17,0.0
18,0.0
19,0.0
20,25.908588999563484
21,0.0
22,0.0
23,0.0
24,0.0
25,0.0
26,4663.546019921428
27,0.0
28,0.0
29,0.0
30,0.0
31,0.0
32,0.0
33,0.0
34,77.6922871571561
35,0.0
36,0.0
37,0.0
38,0.0
39,0.0
40,13984.611688288098
41,0.0
42,0.0
43,0.0
44,0.0
45,0.0
46,0.0
47,0.0
48,18.77057907753471
288,0.05
49,0.0
134,0.0
183,0.0
184,0.0
185,18.77057907753471
186,0.006939224857953003
187,47.89927921499087
135,0.0
213,0.0
262,0.0
2,1,12,25, 0, 2, 3.00, 6.00,Sunday
7,14.700000000000001
8,59.400000000000006
9,1.6900000000000002
10,210.8
11,0.0
12,0.0
13,0.0
14,0.0
15,0.0
16,0.0
17,0.0
18,0.0
19,0.0
20,25.99485195638942
21,0.0
22,0.0
23,0.0
24,0.0
25,0.0
26,4679.073352150096
27,0.0
28,0.0
29,0.0
30,0.0
31,0.0
32,0.0
33,0.0
34,77.96248248489943
35,0.0
36,0.0
37,0.0
38,0.0
39,0.0
40,14033.246847281896
41,0.0
42,0.0
43,0.0
44,0.0
45,0.0
46,0.0
47,0.0
48,18.745516789993243
288,0.05
49,0.0
134,0.0
183,0.0
184,0.0
185,18.745516789993243
186,0.006923425270823686
187,47.86613358679399
135,0.0
213,0.0
262,0.0
2,1,12,25, 0, 2, 6.00, 9.00,Sunday
7,14.65
8,59.599999999999994
9,1.735
10,210.7
11,0.0
12,0.0
13,0.0
14,0.0
15,0.0
16,0.0
17,0.0
18,0.0
19,0.0
20,26.083663440784836
21,0.0
22,0.0
23,0.0
24,0.0
25,0.0
26,4695.059419341271
27,0.0
28,0.0
29,0.0
30,0.0
31,0.0
32,0.0
33,0.0
34,78.23960151482687
35,0.0
36,0.0
37,0.0
38,0.0
39,0.0
40,14083.128272668837
41,0.0
42,0.0
43,0.0
44,0.0
45,0.0
46,0.0
47,0.0
48,18.721803397060548
288,0.05
49,0.0
134,0.0
183,0.0
184,0.0
185,18.721803397060548
186,0.006909206309998221
187,47.839568223323866
135,0.0
213,0.0
262,0.0
2,1,12,25, 0, 2, 9.00,12.00,Sunday
7,14.600000000000001
8,59.800000000000004
9,1.7800000000000002
10,210.6
11,0.0
12,0.0
13,0.0
14,0.0
15,0.0
16,0.0
17,0.0
18,0.0
19,0.0
20,26.17470684355428
21,0.0
22,0.0
23,0.0
24,0.0
25,0.0
26,4711.44723183977
27,0.0
28,0.0
29,0.0
30,0.0
31,0.0
32,0.0
33,0.0
34,78.52276027016461
35,0.0
36,0.0
37,0.0
38,0.0
39,0.0
40,14134.09684862963
41,0.0
42,0.0
43,0.0
44,0.0
45,0.0
46,0.0
47,0.0
48,18.698902794048898
288,0.05
49,0.0
134,0.0
183,0.0
184,0.0
185,18.698902794048898
186,0.006896440256263585
187,47.820358612635104
135,0.0
213,0.0
262,0.0
2,1,12,25, 0, 2,12.00,15.00,Sunday
7,14.55
8,60.0
9,1.8250000000000002
10,210.5
11,0.0
12,0.0
13,0.0
14,0.0
15,0.0
16,0.0
17,0.0
18,0.0
19,0.0
20,26.267295647124303
21,0.0
22,0.0
23,0.0
24,0.0
25,0.0
26,4728.113216482375
27,0.0
28,0.0
29,0.0
30,0.0
31,0.0
32,0.0
33,0.0
34,78.80997575397424
35,0.0
36,0.0
37,0.0
38,0.0
39,0.0
40,14185.795635715363
41,0.0
42,0.0
43,0.0
44,0.0
45,0.0
46,0.0
47,0.0
48,18.676399060288066
288,0.05
49,0.0
134,0.0
183,0.0
184,0.0
185,18.676399060288066
186,0.006884949298658129
187,47.80857556055152
135,0.0
213,0.0
262,0.0
2,1,12,25, 0, 2,15.00,18.00,Sunday
7,14.5
8,60.199999999999996
9,1.8699999999999999
10,210.4
11,0.0
12,0.0
13,0.0
14,0.0
15,0.0
16,0.0
17,0.0
18,0.0
19,0.0
20,26.360992078248962
21,0.0
22,0.0
23,0.0
24,0.0
25,0.0
26,4744.978574084813
27,0.0
28,0.0
29,0.0
30,0.0
31,0.0
32,0.0
33,0.0
34,79.10001736400234
35,0.0
36,0.0
37,0.0
38,0.0
39,0.0
40,14238.003125520421
41,0.0
42,0.0
43,0.0
44,0.0
45,0.0
46,0.0
47,0.0
48,18.65405426041175
288,0.05
49,0.0
134,0.0
183,0.0
184,0.0
185,18.65405426041175
186,0.006874577783432745
187,47.80389676951401
135,0.0
213,0.0
262,0.0
2,1,12,25, 0, 2,18.00,21.00,Sunday
7,14.450000000000001
8,60.4
9,1.915
10,210.3
11,0.0
12,0.0
13,0.0
14,0.0
15,0.0
16,0.0
17,0.0
18,0.0
19,0.0
20,26.45543926875787
21,0.0
22,0.0
23,0.0
24,0.0
25,0.0
26,4761.979068376417
27,0.0
28,0.0
29,0.0
30,0.0
31,0.0
32,0.0
33,0.0
34,79.39184553815433
35,0.0
36,0.0
37,0.0
38,0.0
39,0.0
40,14290.53219686778
41,0.0
42,0.0
43,0.0
44,0.0
45,0.0
46,0.0
47,0.0
48,18.63175520534083
288,0.05
49,0.0
134,0.0
183,0.0
184,0.0
185,18.63175520534083
186,0.006865199825913176
187,47.80582737695617
135,0.0
213,0.0
262,0.0
2,1,12,25, 0, 2,21.00,24.00,Sunday
7,14.400000000000002
8,60.6
9,1.96
10,210.2
11,0.0
12,0.0
13,0.0
14,0.0
15,0.0
16,0.0
17,0.0
18,0.0
19,0.0
20,26.550540786261188
21,0.0
22,0.0
23,0.0
24,0.0
25,0.0
26,4779.097341527014
27,0.0
28,0.0
29,0.0
30,0.0
31,0.0
32,0.0
33,0.0
34,79.6851956228748
35,0.0
36,0.0
37,0.0
38,0.0
39,0.0
40,14343.335212117465
41,0.0
42,0.0
43,0.0
44,0.0
45,0.0
46,0.0
47,0.0
48,18.609448622930632
288,0.05
49,0.0
134,0.0
183,0.0
184,0.0
185,18.609448622930632
186,0.006856710123601884
187,47.81382977674253
135,0.0
213,0.0
262,0.0
2,1,12,25, 0, 2,24.00,27.00,Sunday
7,14.350000000000001
8,60.800000000000004
9,2.005
10,210.1
11,0.0
12,0.0
13,0.0
14,0.0
15,0.0
16,0.0
17,0.0
18,0.0
19,0.0
20,26.64616321907274
21,0.0
22,0.0
23,0.0
24,0.0
25,0.0
26,4796.3093794330935
27,0.0
28,0.0
29,0.0
30,0.0
31,0.0
32,0.0
33,0.0
34,79.97966206389049
35,0.0
36,0.0
37,0.0
38,0.0
39,0.0
40,14396.339171500287
41,0.0
42,0.0
43,0.0
44,0.0
45,0.0
46,0.0
47,0.0
48,18.58710444730274
288,0.05
49,0.0
134,0.0
183,0.0
184,0.0
185,18.58710444730274
186,0.00684901612171788
187,47.82738195977137
135,0.0
213,0.0
262,0.0
2,1,12,25, 0, 2,27.00,30.00,Sunday
7,14.3
8,61.0
9,2.05
10,210.0
11,0.0
12,0.0
13,0.0
14,0.0
15,0.0
16,0.0
17,0.0
18,0.0
19,0.0
20,26.742313152224792
21,0.0
22,0.0
23,0.0
24,0.0
25,0.0
26,4813.616367400463
27,0.0
28,0.0
29,0.0
30,0.0
31,0.0
32,0.0
33,0.0
34,80.27527235713117
35,0.0
36,0.0
37,0.0
38,0.0
39,0.0
40,14449.549024283611
41,0.0
42,0.0
43,0.0
44,0.0
45,0.0
46,0.0
47,0.0
48,18.564698998139335
288,0.05
49,0.0
134,0.0
183,0.0
184,0.0
185,18.564698998139335
186,0.006842034208262054
187,47.845997540992755
135,0.0
213,0.0
262,0.0
2,1,12,25, 0, 2,30.00,33.00,Sunday
7,14.25
8,61.2
9,2.0949999999999998
10,209.9
11,0.0
12,0.0
13,0.0
14,0.0
15,0.0
16,0.0
17,0.0
18,0.0
19,0.0
20,26.838896039736774
21,0.0
22,0.0
23,0.0
24,0.0
25,0.0
26,4831.00128715262
27,0.0
28,0.0
29,0.0
30,0.0
31,0.0
32,0.0
33,0.0
34,80.57173232184327
35,0.0
36,0.0
37,0.0
38,0.0
39,0.0
40,14502.911817931788
41,0.0
42,0.0
43,0.0
44,0.0
45,0.0
46,0.0
47,0.0
48,18.542211875169436
288,0.05
49,0.0
134,0.0
183,0.0
184,0.0
185,18.542211875169436
186,0.0068356883548150804
187,47.869231091604206
135,0.0
213,0.0
262,0.0
2,1,12,25, 0, 2,33.00,36.00,Sunday
7,14.2
8,61.4
9,2.14
10,209.8
11,0.0
12,0.0
13,0.0
14,0.0
15,0.0
16,0.0
17,0.0
18,0.0
19,0.0
20,26.935933267857934
21,0.0
22,0.0
23,0.0
24,0.0
25,0.0
26,4848.467988214428
27,0.0
28,0.0
29,0.0
30,0.0
31,0.0
32,0.0
33,0.0
34,80.8691132290939
35,0.0
36,0.0
37,0.0
38,0.0
39,0.0
40,14556.440381236902
41,0.0
42,0.0
43,0.0
44,0.0
45,0.0
46,0.0
47,0.0
48,18.51962300796627
288,0.05
49,0.0
134,0.0
183,0.0
184,0.0
185,18.51962300796627
186,0.006829909517171106
187,47.896685816826036
135,0.0
213,0.0
262,0.0
2,1,12,25, 0, 2,36.00,39.00,Sunday
7,14.15
8,61.6
9,2.185
10,209.7
11,0.0
12,0.0
13,0.0
14,0.0
15,0.0
16,0.0
17,0.0
18,0.0
19,0.0
20,27.033335767513215
21,0.0
22,0.0
23,0.0
24,0.0
25,0.0
26,4866.000438152379
27,0.0
28,0.0
29,0.0
30,0.0
31,0.0
32,0.0
33,0.0
34,81.16713797235667
35,0.0
36,0.0
37,0.0
38,0.0
39,0.0
40,14610.084835024201
41,0.0
42,0.0
43,0.0
44,0.0
45,0.0
46,0.0
47,0.0
48,18.49691157149302
288,0.05
49,0.0
134,0.0
183,0.0
184,0.0
185,18.49691157149302
186,0.0068246351757455725
187,47.928007883285225
135,0.0
213,0.0
262,0.0
2,1,12,25, 0, 2,39.00,42.00,Sunday
7,14.100000000000001
8,61.8
9,2.23
10,209.6
11,0.0
12,0.0
13,0.0
14,0.0
15,0.0
16,0.0
17,0.0
18,0.0
19,0.0
20,27.1311270423572
21,0.0
22,0.0
23,0.0
24,0.0
25,0.0
26,4883.602867624296
27,0.0
28,0.0
29,0.0
30,0.0
31,0.0
32,0.0
33,0.0
34,81.46588573004608
35,0.0
36,0.0
37,0.0
38,0.0
39,0.0
40,14663.859431408295
41,0.0
42,0.0
43,0.0
44,0.0
45,0.0
46,0.0
47,0.0
48,18.474048385524622
288,0.05
49,0.0
134,0.0
183,0.0
184,0.0
185,18.474048385524622
186,0.006819808819184305
187,47.96290610861673
135,0.0
213,0.0
262,0.0
2,1,12,25, 0, 2,42.00,45.00,Sunday
7,14.05
8,62.0
9,2.275
10,209.5
11,0.0
12,0.0
13,0.0
14,0.0
15,0.0
16,0.0
17,0.0
18,0.0
19,0.0
20,27.229209332910187
21,0.0
22,0.0
23,0.0
24,0.0
25,0.0
26,4901.257679923834
27,0.0
28,0.0
29,0.0
30,0.0
31,0.0
32,0.0
33,0.0
34,81.76505661141167
35,0.0
36,0.0
37,0.0
38,0.0
39,0.0
40,14717.7101900541
41,0.0
42,0.0
43,0.0
44,0.0
45,0.0
46,0.0
47,0.0
48,18.45096536556551
288,0.05
49,0.0
134,0.0
183,0.0
184,0.0
185,18.45096536556551
186,0.006815379352414538
187,48.00124296964818
135,0.0
213,0.0
262,0.0
2,1,12,25, 0, 2,45.00,48.00,Sunday
7,14.0
8,62.2
9,2.32
10,209.4
11,0.0
12,0.0
13,0.0
14,0.0
15,0.0
16,0.0
17,0.0
18,0.0
19,0.0
20,27.327556222682027
21,0.0
22,0.0
23,0.0
24,0.0
25,0.0
26,4918.960120082765
27,0.0
28,0.0
29,0.0
30,0.0
31,0.0
32,0.0
33,0.0
34,82.06459135163269
35,0.0
36,0.0
37,0.0
38,0.0
39,0.0
40,14771.626443293884
41,0.0
42,0.0
43,0.0
44,0.0
45,0.0
46,0.0
47,0.0
48,18.42793145355882
288,0.05
49,0.0
134,0.0
183,0.0
184,0.0
185,18.42793145355882
186,0.006811300524101895
187,48.04190248792442
135,0.0
213,0.0
262,0.0
2,1,12,25, 0, 2,48.00,51.00,Sunday
7,13.950000000000001
8,62.4
9,2.365
10,209.3
11,0.0
12,0.0
13,0.0
14,0.0
15,0.0
16,0.0
17,0.0
18,0.0
19,0.0
20,27.426395671673056
21,0.0
22,0.0
23,0.0
24,0.0
25,0.0
26,4936.75122090115
27,0.0
28,0.0
29,0.0
30,0.0
31,0.0
32,0.0
33,0.0
34,82.36510819204591
35,0.0
36,0.0
37,0.0
38,0.0
39,0.0
40,14825.719474568265
41,0.0
42,0.0
43,0.0
44,0.0
45,0.0
46,0.0
47,0.0
48,18.405130908447454
288,0.05
49,0.0
134,0.0
183,0.0
184,0.0
185,18.405130908447454
186,0.006807530914450119
187,48.08404754291107
135,0.0
213,0.0
262,0.0
2,1,12,25, 0, 2,51.00,54.00,Sunday
7,13.900000000000002
8,62.6
9,2.41
10,209.2
11,0.0
12,0.0
13,0.0
14,0.0
15,0.0
16,0.0
17,0.0
18,0.0
19,0.0
20,27.525945652182195
21,0.0
22,0.0
23,0.0
24,0.0
25,0.0
26,4954.670217392795
27,0.0
28,0.0
29,0.0
30,0.0
31,0.0
32,0.0
33,0.0
34,82.6672154435816
35,0.0
36,0.0
37,0.0
38,0.0
39,0.0
40,14880.098779844688
41,0.0
42,0.0
43,0.0
44,0.0
45,0.0
46,0.0
47,0.0
48,18.382604198871203
288,0.05
49,0.0
134,0.0
183,0.0
184,0.0
185,18.382604198871203
186,0.006804033672866902
187,48.127306471275574
135,0.0
213,0.0
262,0.0
2,1,12,25, 0, 2,54.00,57.00,Sunday
7,13.85
8,62.8
9,2.455
10,209.1
11,0.0
12,0.0
13,0.0
14,0.0
15,0.0
16,0.0
17,0.0
18,0.0
19,0.0
20,27.626208329473386
21,0.0
22,0.0
23,0.0
24,0.0
25,0.0
26,4972.7174993052095
27,0.0
28,0.0
29,0.0
30,0.0
31,0.0
32,0.0
33,0.0
34,82.97089665552701
35,0.0
36,0.0
37,0.0
38,0.0
39,0.0
40,14934.761397994862
41,0.0
42,0.0
43,0.0
44,0.0
45,0.0
46,0.0
47,0.0
48,18.360313255168403
288,0.05
49,0.0
134,0.0
183,0.0
184,0.0
185,18.360313255168403
186,0.0068007758975925856
187,48.17156949255554
135,0.0
213,0.0
262,0.0
2,1,12,25, 0, 2,57.00,60.00,Sunday
7,13.8
8,63.0
9,2.5
10,209.0
11,0.0
12,0.0
13,0.0
14,0.0
15,0.0
16,0.0
17,0.0
18,0.0
19,0.0
20,27.727201937724136
21,0.0
22,0.0
23,0.0
24,0.0
25,0.0
26,4990.896348790345
27,0.0
28,0.0
29,0.0
30,0.0
31,0.0
32,0.0
33,0.0
34,83.27621876497827
35,0.0
36,0.0
37,0.0
38,0.0
39,0.0
40,14989.719377696088
41,0.0
42,0.0
43,0.0
44,0.0
45,0.0
46,0.0
47,0.0
48,18.33820107444017
288,0.05
49,0.0
134,0.0
183,0.0
184,0.0
185,18.33820107444017
186,0.006797727944888621
187,48.21680360558078
135,0.0
213,0.0
262,0.0
2,1,12,25, 0, 3, 0.00, 3.00,Sunday
7,13.754999999999999
8,63.099999999999994
9,2.49
10,206.7
11,0.0
12,0.0
13,0.0
14,0.0
15,0.0
16,0.0
17,0.0
18,0.0
19,0.0
20,27.806891506678795
21,0.0
22,0.0
23,0.0
24,0.0
25,0.0
26,5005.2404712021835
27,0.0
28,0.0
29,0.0
30,0.0
31,0.0
32,0.0
33,0.0
34,83.52481208106676
35,0.0
36,0.0
37,0.0
38,0.0
39,0.0
40,15034.466174592017
41,0.0
42,0.0
43,0.0
44,0.0
45,0.0
46,0.0
47,0.0
48,18.316484777156163
288,0.05
49,0.0
134,0.0
183,0.0
184,0.0
185,18.316484777156163
186,0.006794419467276015
187,48.25905283395725
135,0.0
213,0.0
262,0.0
2,1,12,25, 0, 3, 3.00, 6.00,Sunday
7,13.71
8,63.2
9,2.48
10,204.4
11,0.0
12,0.0
13,0.0
14,0.0
15,0.0
16,0.0
17,0.0
18,0.0
19,0.0
20,27.887479648880074
21,0.0
22,0.0
23,0.0
24,0.0
25,0.0
26,5019.746336798414
27,0.0
28,0.0
29,0.0
30,0.0
31,0.0
32,0.0
33,0.0
34,83.77541685502877
35,0.0
36,0.0
37,0.0
38,0.0
39,0.0
40,15079.575033905177
41,0.0
42,0.0
43,0.0
44,0.0
45,0.0
46,0.0
47,0.0
48,18.295212742475535
288,0.05
49,0.0
134,0.0
183,0.0
184,0.0
185,18.295212742475535
186,0.006790585673267806
187,48.29629846227601
135,0.0
213,0.0
262,0.0
2,1,12,25, 0, 3, 6.00, 9.00,Sunday
7,13.665000000000001
8,63.3
9,2.4699999999999998
10,202.1
11,0.0
12,0.0
13,0.0
14,0.0
15,0.0
16,0.0
17,0.0
18,0.0
19,0.0
20,27.968401727968732
21,0.0
22,0.0
23,0.0
24,0.0
25,0.0
26,5034.312311034372
27,0.0
28,0.0
29,0.0
30,0.0
31,0.0
32,0.0
33,0.0
34,84.02688866123839
35,0.0
36,0.0
37,0.0
38,0.0
39,0.0
40,15124.83995902291
41,0.0
42,0.0
43,0.0
44,0.0
45,0.0
46,0.0
47,0.0
48,18.274291351054174
288,0.05
49,0.0
134,0.0
183,0.0
184,0.0
185,18.274291351054174
186,0.006786175634210327
187,48.32844083075324
135,0.0
213,0.0
262,0.0
2,1,12,25, 0, 3, 9.00,12.00,Sunday
7,13.620000000000001
8,63.400000000000006
9,2.46
10,199.8
11,0.0
12,0.0
13,0.0
14,0.0
15,0.0
16,0.0
17,0.0
18,0.0
19,0.0
20,28.049604326561127
21,0.0
22,0.0
23,0.0
24,0.0
25,0.0
26,5048.928778781003
27,0.0
28,0.0
29,0.0
30,0.0
31,0.0
32,0.0
33,0.0
34,84.27909391988779
35,0.0
36,0.0
37,0.0
38,0.0
39,0.0
40,15170.2369055798
41,0.0
42,0.0
43,0.0
44,0.0
45,0.0
46,0.0
47,0.0
48,18.253595203485666
288,0.05
49,0.0
134,0.0
183,0.0
184,0.0
185,18.253595203485666
186,0.0067812344786786875
187,48.35616750267516
135,0.0
213,0.0
262,0.0
2,1,12,25, 0, 3,12.00,15.00,Sunday
7,13.575000000000001
8,63.5
9,2.45
10,197.5
11,0.0
12,0.0
13,0.0
14,0.0
15,0.0
16,0.0
17,0.0
18,0.0
19,0.0
20,28.130885914845216
21,0.0
22,0.0
23,0.0
24,0.0
25,0.0
26,5063.559464672139
27,0.0
28,0.0
29,0.0
30,0.0
31,0.0
32,0.0
33,0.0
34,84.53144836940788
35,0.0
36,0.0
37,0.0
38,0.0
39,0.0
40,15215.66070649342
41,0.0
42,0.0
43,0.0
44,0.0
45,0.0
46,0.0
47,0.0
48,18.2330305146625
288,0.05
49,0.0
134,0.0
183,0.0
184,0.0
185,18.2330305146625
186,0.006775825869974146
187,48.38019002986751
135,0.0
213,0.0
262,0.0
2,1,12,25, 0, 3,15.00,18.00,Sunday
7,13.530000000000001
8,63.599999999999994
9,2.44
10,195.2
11,0.0
12,0.0
13,0.0
14,0.0
15,0.0
16,0.0
17,0.0
18,0.0
19,0.0